    2    2    1    1
  0.1280239E+03  0.6350000E-09  0.6350000E-09  0.6350000E-09  0.5000000E-15
   1.0000000000000000E-004
  CAR 
 unknown system                          
      2      1     24
