       N       E                     dE             d eps       ncg     rms          rms(c)
DIA:   1    -0.787554898287E+01   -0.78755E+01    0.00000E+00     0   0.000E+00
   1 F= -.78755490E+01 E0= -.78755490E+01  d E =0.000000E+00
