 vasp.6.3.0 20Jan22 (build Dec  8 2022 17:40:58) gamma-only                      
 executed on             LinuxGNU date 2024.05.24  14:50:30
 running on    4 total cores
 distrk:  each k-point on    4 cores,    1 groups
 distr:  one band on NCORE=   1 cores,    4 groups


--------------------------------------------------------------------------------------------------------


 INCAR:
   ENCUT = 500
   SIGMA = 0.001
   EDIFF = 1E-6
   ISYM = -1
   ALGO = sub
   NELM = 1
   NBANDS = 6619
   ISYM = -1
   PREC = Accurate
   LREAL = .TRUE.

 POTCAR:    PAW_PBE Li_GW 11May2007               
 POTCAR:    PAW_PBE H_GW 21Apr2008                
 POTCAR:    PAW_PBE Li_GW 11May2007               
   SHA256 =  c4b788acc6a1447003eb32b05f4862c502ff3cce9bf6cb6ad4cc41d5ac668445 Li_GW/POTCAR          
   COPYR  = (c) Copyright 11May2007 Georg Kresse                                                    
   COPYR  = This file is part of the software VASP. Any use, copying, and all other rights are regul
   COPYR  = If you do not have a valid VASP license, you may not use, copy or distribute this file. 
   VRHFIN =Li: s1p0                                                                                 
   LEXCH  = PE                                                                                      
   EATOM  =     5.3001 eV,    0.3895 Ry                                                             
                                                                                                    
   TITEL  = PAW_PBE Li_GW 11May2007                                                                 
   LULTRA =        F    use ultrasoft PP ?                                                          
   IUNSCR =        1    unscreen: 0-lin 1-nonlin 2-no                                               
   RPACOR =    1.500    partial core radius                                                         
   POMASS =    7.010; ZVAL   =    1.000    mass and valenz                                          
   RCORE  =    2.100    outmost cutoff radius                                                       
   RWIGS  =    2.600; RWIGS  =    1.376    wigner-seitz radius (au A)                               
   ENMAX  =  112.104; ENMIN  =   84.078 eV                                                          
   ICORE  =        2    local potential                                                             
   LCOR   =        T    correct aug charges                                                         
   LPAW   =        T    paw PP                                                                      
   EAUG   =  291.793                                                                                
   DEXC   =    0.000                                                                                
   RMAX   =    2.149    core radius for proj-oper                                                   
   RAUG   =    1.300    factor for augmentation sphere                                              
   RDEP   =    2.232    radius for radial grids                                                     
   RDEPT  =    1.854    core radius for aug-charge                                                  
                                                                                                    
   Atomic configuration                                                                             
    4 entries                                                                                       
     n  l   j            E        occ.                                                              
     1  0  0.50       -51.8549   2.0000                                                             
     2  0  0.50        -2.8742   1.0000                                                             
     2  1  0.50        -2.8708   0.0000                                                             
     3  2  1.50        -1.3606   0.0000                                                             
   Description                                                                                      
     l       E           TYP  RCUT    TYP  RCUT                                                     
     0     -2.8742051     23  2.100                                                                 
     0     54.4233040     23  2.100                                                                 
     1     -2.8708293     23  2.050                                                                 
     2     -1.3605826     15  2.050                                                                 
  local pseudopotential read in
  partial core-charges read in
  partial kinetic energy density read in
  kinetic energy density of atom read in
  atomic valenz-charges read in
  non local Contribution for L=           0  read in
    real space projection operators read in
  non local Contribution for L=           0  read in
    real space projection operators read in
  non local Contribution for L=           1  read in
    real space projection operators read in
    PAW grid and wavefunctions read in

   number of l-projection  operators is LMAX  =           3
   number of lm-projection operators is LMMAX =           5

 POTCAR:    PAW_PBE H_GW 21Apr2008                
   SHA256 =  cecc88617a3d1ece9865646f5d462fc0f44fd1f68d6f2eb08f18a2e421902afb H_GW/POTCAR           
   COPYR  = (c) Copyright 21Apr2008 Georg Kresse                                                    
   COPYR  = This file is part of the software VASP. Any use, copying, and all other rights are regul
   COPYR  = If you do not have a valid VASP license, you may not use, copy or distribute this file. 
   VRHFIN =H: ultrasoft test                                                                        
   LEXCH  = PE                                                                                      
   EATOM  =    12.4884 eV,    0.9179 Ry                                                             
                                                                                                    
   TITEL  = PAW_PBE H_GW 21Apr2008                                                                  
   LULTRA =        F    use ultrasoft PP ?                                                          
   IUNSCR =        0    unscreen: 0-lin 1-nonlin 2-no                                               
   RPACOR =    0.000    partial core radius                                                         
   POMASS =    1.000; ZVAL   =    1.000    mass and valenz                                          
   RCORE  =    1.100    outmost cutoff radius                                                       
   RWIGS  =    1.100; RWIGS  =    0.582    wigner-seitz radius (au A)                               
   ENMAX  =  300.000; ENMIN  =  250.000 eV                                                          
   RCLOC  =    0.701    cutoff for local pot                                                        
   LCOR   =        T    correct aug charges                                                         
   LPAW   =        T    paw PP                                                                      
   EAUG   =  500.000                                                                                
   RMAX   =    1.123    core radius for proj-oper                                                   
   RAUG   =    1.200    factor for augmentation sphere                                              
   RDEP   =    1.112    radius for radial grids                                                     
   RDEPT  =    1.100    core radius for aug-charge                                                  
                                                                                                    
   Atomic configuration                                                                             
    3 entries                                                                                       
     n  l   j            E        occ.                                                              
     1  0  0.50        -6.4927   1.0000                                                             
     2  1  0.50        -3.4015   0.0000                                                             
     3  2  1.50        13.6058   0.0000                                                             
   Description                                                                                      
     l       E           TYP  RCUT    TYP  RCUT                                                     
     0     -6.4927495     23  0.950                                                                 
     0      6.8029130     23  0.950                                                                 
     1     -4.0817478     23  1.100                                                                 
     1    108.8466080     23  1.100                                                                 
     2     81.6349560     23  1.100                                                                 
  local pseudopotential read in
  kinetic energy density of atom read in
  atomic valenz-charges read in
  non local Contribution for L=           0  read in
    real space projection operators read in
  non local Contribution for L=           0  read in
    real space projection operators read in
  non local Contribution for L=           1  read in
    real space projection operators read in
  non local Contribution for L=           1  read in
    real space projection operators read in
  non local Contribution for L=           2  read in
    real space projection operators read in
    PAW grid and wavefunctions read in

   number of l-projection  operators is LMAX  =           5
   number of lm-projection operators is LMMAX =          13

 -----------------------------------------------------------------------------
|                                                                             |
|               ----> ADVICE to this user running VASP <----                  |
|                                                                             |
|     You have a (more or less) 'small supercell' and for smaller cells       |
|     it is recommended to use the reciprocal-space projection scheme!        |
|     The real-space optimization is not efficient for small cells and it     |
|     is also less accurate ...                                               |
|     Therefore, set LREAL=.FALSE. in the INCAR file.                         |
|                                                                             |
 -----------------------------------------------------------------------------

 -----------------------------------------------------------------------------
|                                                                             |
|           W    W    AA    RRRRR   N    N  II  N    N   GGGG   !!!           |
|           W    W   A  A   R    R  NN   N  II  NN   N  G    G  !!!           |
|           W    W  A    A  R    R  N N  N  II  N N  N  G       !!!           |
|           W WW W  AAAAAA  RRRRR   N  N N  II  N  N N  G  GGG   !            |
|           WW  WW  A    A  R   R   N   NN  II  N   NN  G    G                |
|           W    W  A    A  R    R  N    N  II  N    N   GGGG   !!!           |
|                                                                             |
|     The real-space projection scheme for the treatment of the non-local     |
|     pseudopotentials has been switched on but on file POTCAR I have not     |
|     found any entries, signalling me that you have never performed a        |
|     real-space optimization of all non-local projectors! BE WARNED that     |
|     a calculation using the real-space projection scheme together with      |
|     non-local projectors which were not real-space optimized (according     |
|     to the plane-wave cutoff used in this calculation) might give more      |
|     or less inaccurate results. I hope you know what you are doing.         |
|                                                                             |
 -----------------------------------------------------------------------------

  PAW_PBE Li_GW 11May2007               :
 energy of atom  1       EATOM=   -5.3001
 kinetic energy error for atom=    0.0000 (will be added to EATOM!!)
  PAW_PBE H_GW 21Apr2008                :
 energy of atom  2       EATOM=  -12.4884
 kinetic energy error for atom=    0.0109 (will be added to EATOM!!)


 POSCAR: LiH
  positions in cartesian coordinates
  No initial velocities read in
 exchange correlation table for  LEXCH =        8
   RHO(1)=    0.500       N(1)  =     2000
   RHO(2)=  100.500       N(2)  =     4000



--------------------------------------------------------------------------------------------------------


 ion  position               nearest neighbor table
   1  0.000  0.000  0.000-   2 1.62
   2  0.000  0.000  0.255-   1 1.62


IMPORTANT INFORMATION: All symmetrisations will be switched off!
NOSYMM: (Re-)initialisation of all symmetry stuff for point group C_1.


----------------------------------------------------------------------------------------

                                     Primitive cell                                     

  volume of cell :     256.0479

  direct lattice vectors                    reciprocal lattice vectors
     6.350000000  0.000000000  0.000000000     0.157480315  0.000000000  0.000000000
     0.000000000  6.350000000  0.000000000     0.000000000  0.157480315  0.000000000
     0.000000000  0.000000000  6.350000000     0.000000000  0.000000000  0.157480315

  length of vectors
     6.350000000  6.350000000  6.350000000     0.157480315  0.157480315  0.157480315

  position of ions in fractional coordinates (direct lattice)
     0.000000000  0.000000000  0.000000000
     0.000000000  0.000000000  0.255285402

  ion indices of the primitive-cell ions
   primitive index   ion index
                 1           1
                 2           2

----------------------------------------------------------------------------------------



 KPOINTS: Automatically generated mesh            

Automatic generation of k-mesh.
 Grid dimensions read from file:
 generate k-points for:    1    1    1

 Generating k-lattice:

  Cartesian coordinates                     Fractional coordinates (reciprocal lattice)
     0.157480315  0.000000000  0.000000000     1.000000000  0.000000000  0.000000000
     0.000000000  0.157480315  0.000000000     0.000000000  1.000000000  0.000000000
     0.000000000  0.000000000  0.157480315     0.000000000  0.000000000  1.000000000

  Length of vectors
     0.157480315  0.157480315  0.157480315

  Shift w.r.t. Gamma in fractional coordinates (k-lattice)
     0.000000000  0.000000000  0.000000000

 
 Subroutine IBZKPT returns following result:
 ===========================================
 
 Found      1 irreducible k-points:
 
 Following reciprocal coordinates:
            Coordinates               Weight
  0.000000  0.000000  0.000000      1.000000
 
 Following cartesian coordinates:
            Coordinates               Weight
  0.000000  0.000000  0.000000      1.000000
 
 -----------------------------------------------------------------------------
|                                                                             |
|           W    W    AA    RRRRR   N    N  II  N    N   GGGG   !!!           |
|           W    W   A  A   R    R  NN   N  II  NN   N  G    G  !!!           |
|           W    W  A    A  R    R  N N  N  II  N N  N  G       !!!           |
|           W WW W  AAAAAA  RRRRR   N  N N  II  N  N N  G  GGG   !            |
|           WW  WW  A    A  R   R   N   NN  II  N   NN  G    G                |
|           W    W  A    A  R    R  N    N  II  N    N   GGGG   !!!           |
|                                                                             |
|     The number of bands has been changed from the values supplied in        |
|     the INCAR file. This is a result of running the parallel version.       |
|     The orbitals not found in the WAVECAR file will be initialized with     |
|     random numbers, which is usually adequate. For correlated               |
|     calculations, however, you should redo the groundstate calculation.     |
|     I found NBANDS = 6619. Now, NBANDS = 6620.                              |
|                                                                             |
 -----------------------------------------------------------------------------



--------------------------------------------------------------------------------------------------------




 Dimension of arrays:
   k-points           NKPTS =      1   k-points in BZ     NKDIM =      1   number of bands    NBANDS=   6620
   number of dos      NEDOS =    301   number of ions     NIONS =      2
   non local maximal  LDIM  =      5   non local SUM 2l+1 LMDIM =     13
   total plane-waves  NPLWV = 110592
   max r-space proj   IRMAX =   2710   max aug-charges    IRDMAX=  16944
   dimension x,y,z NGX =    48 NGY =   48 NGZ =   48
   dimension x,y,z NGXF=    96 NGYF=   96 NGZF=   96
   support grid    NGXF=    96 NGYF=   96 NGZF=   96
   ions per type =               1   1
   NGX,Y,Z   is equivalent  to a cutoff of  12.57, 12.57, 12.57 a.u.
   NGXF,Y,Z  is equivalent  to a cutoff of  25.13, 25.13, 25.13 a.u.

 SYSTEM =  unknown system                          
 POSCAR =  LiH                                     

 Startparameter for this run:
   NWRITE =      2    write-flag & timer
   PREC   = accura    normal or accurate (medium, high low for compatibility)
   ISTART =      1    job   : 0-new  1-cont  2-samecut
   ICHARG =      0    charge: 1-file 2-atom 10-const
   ISPIN  =      1    spin polarized calculation?
   LNONCOLLINEAR =      F non collinear calculations
   LSORBIT =      F    spin-orbit coupling
   INIWAV =      1    electr: 0-lowe 1-rand  2-diag
   LASPH  =      F    aspherical Exc in radial PAW
 Electronic Relaxation 1
   ENCUT  =  500.0 eV  36.75 Ry    6.06 a.u.  11.58 11.58 11.58*2*pi/ulx,y,z
   ENINI  =  500.0     initial cutoff
   ENAUG  =  500.0 eV  augmentation charge cutoff
   NELM   =      1;   NELMIN=  2; NELMDL=  0     # of ELM steps 
   EDIFF  = 0.1E-05   stopping-criterion for ELM
   LREAL  =      T    real-space projection
   NLSPLINE    = F    spline interpolate recip. space projectors
   LCOMPAT=      F    compatible to vasp.4.4
   GGA_COMPAT  = T    GGA compatible to vasp.4.4-vasp.4.6
   LMAXPAW     = -100 max onsite density
   LMAXMIX     =    2 max onsite mixed and CHGCAR
   VOSKOWN=      0    Vosko Wilk Nusair interpolation
   ROPT   =    0.00000   0.00000
 Ionic relaxation
   EDIFFG = 0.1E-04   stopping-criterion for IOM
   NSW    =      0    number of steps for IOM
   NBLOCK =      1;   KBLOCK =      1    inner block; outer block 
   IBRION =     -1    ionic relax: 0-MD 1-quasi-New 2-CG
   NFREE  =      0    steps in history (QN), initial steepest desc. (CG)
   ISIF   =      2    stress and relaxation
   IWAVPR =     10    prediction:  0-non 1-charg 2-wave 3-comb
   ISYM   =     -1    0-nonsym 1-usesym 2-fastsym
   LCORR  =      T    Harris-Foulkes like correction to forces

   POTIM  = 0.5000    time-step for ionic-motion
   TEIN   =    0.0    initial temperature
   TEBEG  =    0.0;   TEEND  =   0.0 temperature during run
   SMASS  =  -3.00    Nose mass-parameter (am)
   estimated Nose-frequenzy (Omega)   =  0.10E-29 period in steps = 0.13E+47 mass=  -0.921E-27a.u.
   SCALEE = 1.0000    scale energy and forces
   NPACO  =    256;   APACO  = 10.0  distance and # of slots for P.C.
   PSTRESS=    0.0 pullay stress

  Mass of Ions in am
   POMASS =   7.01  1.00
  Ionic Valenz
   ZVAL   =   1.00  1.00
  Atomic Wigner-Seitz radii
   RWIGS  =  -1.00 -1.00
  virtual crystal weights 
   VCA    =   1.00  1.00
   NELECT =       2.0000    total number of electrons
   NUPDOWN=      -1.0000    fix difference up-down

 DOS related values:
   EMIN   =  10.00;   EMAX   =-10.00  energy-range for DOS
   EFERMI =   0.00
   ISMEAR =     1;   SIGMA  =   0.00  broadening in eV -4-tet -1-fermi 0-gaus

 Electronic relaxation 2 (details)
   IALGO  =      4    algorithm
   LDIAG  =      T    sub-space diagonalisation (order eigenvalues)
   LSUBROT=      F    optimize rotation matrix (better conditioning)
   TURBO    =      0    0=normal 1=particle mesh
   IRESTART =      0    0=no restart 2=restart with 2 vectors
   NREBOOT  =      0    no. of reboots
   NMIN     =      0    reboot dimension
   EREF     =   0.00    reference energy to select bands
   IMIX   =      4    mixing-type and parameters
     AMIX     =   0.40;   BMIX     =  1.00
     AMIX_MAG =   1.60;   BMIX_MAG =  1.00
     AMIN     =   0.10
     WC   =   100.;   INIMIX=   1;  MIXPRE=   1;  MAXMIX= -45

 Intra band minimization:
   WEIMIN = 0.0000     energy-eigenvalue tresh-hold
   EBREAK =  0.38E-10  absolut break condition
   DEPER  =   0.30     relativ break condition  

   TIME   =   0.40     timestep for ELM

  volume/ion in A,a.u.               =     128.02       863.95
  Fermi-wavevector in a.u.,A,eV,Ry     =   0.324821  0.613823  1.435535  0.105509
  Thomas-Fermi vector in A             =   1.215279

 Write flags
   LWAVE        =      T    write WAVECAR
   LDOWNSAMPLE  =      F    k-point downsampling of WAVECAR
   LCHARG       =      T    write CHGCAR
   LVTOT        =      F    write LOCPOT, total local potential
   LVHAR        =      F    write LOCPOT, Hartree potential only
   LELF         =      F    write electronic localiz. function (ELF)
   LORBIT       =      0    0 simple, 1 ext, 2 COOP (PROOUT), +10 PAW based schemes


 Dipole corrections
   LMONO  =      F    monopole corrections only (constant potential shift)
   LDIPOL =      F    correct potential (dipole corrections)
   IDIPOL =      0    1-x, 2-y, 3-z, 4-all directions 
   EPSILON=  1.0000000 bulk dielectric constant

 Exchange correlation treatment:
   GGA     =    --    GGA type
   LEXCH   =     8    internal setting for exchange type
   LIBXC   =     F    Libxc                    
   VOSKOWN =     0    Vosko Wilk Nusair interpolation
   LHFCALC =     F    Hartree Fock is set to
   LHFONE  =     F    Hartree Fock one center treatment
   AEXX    =    0.0000 exact exchange contribution

 Linear response parameters
   LEPSILON=     F    determine dielectric tensor
   LRPA    =     F    only Hartree local field effects (RPA)
   LNABLA  =     F    use nabla operator in PAW spheres
   LVEL    =     F    velocity operator in full k-point grid
   CSHIFT  =0.1000    complex shift for real part using Kramers Kronig
   OMEGAMAX=  -1.0    maximum frequency
   DEG_THRESHOLD= 0.2000000E-02 threshold for treating states as degnerate
   RTIME   =   -0.100 relaxation time in fs
  (WPLASMAI=    0.000 imaginary part of plasma frequency in eV, 0.658/RTIME)
   DFIELD  = 0.0000000 0.0000000 0.0000000 field for delta impulse in time

  Optional k-point grid parameters
   LKPOINTS_OPT  =     F    use optional k-point grid
   KPOINTS_OPT_MODE=     1    mode for optional k-point grid

 Orbital magnetization related:
   ORBITALMAG=     F  switch on orbital magnetization
   LCHIMAG   =     F  perturbation theory with respect to B field
   DQ        =  0.001000  dq finite difference perturbation B field
   LLRAUG    =     F  two centre corrections for induced B field



--------------------------------------------------------------------------------------------------------


 Static calculation
 charge density and potential will be updated during run
 non-spin polarized calculation
 Subrot: only subspace diagonalization (rotation)
    band-by band algorithm
 perform sub-space diagonalisation
    before iterative eigenvector-optimisation
 modified Broyden-mixing scheme, WC =      100.0
 initial mixing is a Kerker type mixing with AMIX =  0.4000 and BMIX =      1.0000
 Hartree-type preconditioning will be used
 using additional bands         6619
 real space projection scheme for non local part
 use partial core corrections
 calculate Harris-corrections to forces   (improved forces if not selfconsistent)
 use gradient corrections 
 use of overlap-Matrix (Vanderbilt PP)
 Methfessel and Paxton  Order N= 1 SIGMA  =   0.00


--------------------------------------------------------------------------------------------------------


  energy-cutoff  :      500.00
  volume of cell :      256.05
      direct lattice vectors                 reciprocal lattice vectors
     6.350000000  0.000000000  0.000000000     0.157480315  0.000000000  0.000000000
     0.000000000  6.350000000  0.000000000     0.000000000  0.157480315  0.000000000
     0.000000000  0.000000000  6.350000000     0.000000000  0.000000000  0.157480315

  length of vectors
     6.350000000  6.350000000  6.350000000     0.157480315  0.157480315  0.157480315



 old parameters found on file WAVECAR:
  energy-cutoff  :      500.00
  volume of cell :      256.05
      direct lattice vectors                 reciprocal lattice vectors
     6.350000000  0.000000000  0.000000000     0.157480315  0.000000000  0.000000000
     0.000000000  6.350000000  0.000000000     0.000000000  0.157480315  0.000000000
     0.000000000  0.000000000  6.350000000     0.000000000  0.000000000  0.157480315

  length of vectors


 k-points in units of 2pi/SCALE and weight: Automatically generated mesh            
   0.00000000  0.00000000  0.00000000       1.000

 k-points in reciprocal lattice and weights: Automatically generated mesh            
   0.00000000  0.00000000  0.00000000       1.000

 position of ions in fractional coordinates (direct lattice) 
   0.00000000  0.00000000  0.00000000
   0.00000000  0.00000000  0.25528540

 position of ions in cartesian coordinates  (Angst):
   0.00000000  0.00000000  0.00000000
   0.00000000  0.00000000  1.62106230



--------------------------------------------------------------------------------------------------------


 use serial FFT for orbitals x direction half grid
 k-point   1 :   0.0000 0.0000 0.0000  plane waves:    3310

 maximum and minimum number of plane-waves per node :      3310     3310

 maximum number of plane-waves:      3310
 maximum index in each direction: 
   IXMAX=   11   IYMAX=   11   IZMAX=   11
   IXMIN=    0   IYMIN=  -11   IZMIN=  -11


 serial   3D FFT for wavefunctions
 parallel 3D FFT for charge:
    minimum data exchange during FFTs selected (reduces bandwidth)


 total amount of memory used by VASP MPI-rank0   143188. kBytes
=======================================================================

   base      :      30000. kBytes
   nonlr-proj:        154. kBytes
   fftplans  :       8029. kBytes
   grid      :      17031. kBytes
   one-center:          8. kBytes
   wavefun   :      87966. kBytes

     INWAV:  cpu time      0.9463: real time      0.9466
 Broyden mixing: mesh for mixing (old mesh)
   NGX = 23   NGY = 23   NGZ = 23
  (NGX  = 96   NGY  = 96   NGZ  = 96)
  gives a total of  12167 points

 charge density for first step will be calculated from the start-wavefunctions


--------------------------------------------------------------------------------------------------------


 Maximum index for non-local projection operator         2553
 Maximum index for augmentation-charges         4031 (set IRDMAX)


--------------------------------------------------------------------------------------------------------


 initial charge from wavefunction
 First call to EWALD:  gamma=   0.279
 Maximum number of real-space cells 3x 3x 3
 Maximum number of reciprocal cells 3x 3x 3

    FEWALD:  cpu time      0.0004: real time      0.0004


--------------------------------------- Iteration      1(   1)  ---------------------------------------


    POTLOK:  cpu time      0.1070: real time      0.1076
    SETDIJ:  cpu time      0.0013: real time      0.0013
    EDDIAG:  cpu time     46.3176: real time     46.3317
       DOS:  cpu time      0.0004: real time      0.0005
    --------------------------------------------
      LOOP:  cpu time     46.4264: real time     46.4411

 eigenvalue-minimisations  :     0
 total energy-change (2. order) :-0.4068064E+01  ( 0.0000000E+00)
 number of electron       2.0000000 magnetization 
 augmentation part        0.0156699 magnetization 

 Free energy of the ion-electron system (eV)
  ---------------------------------------------------
  alpha Z        PSCENC =         0.00733884
  Ewald energy   TEWEN  =        -3.64529433
  -Hartree energ DENC   =       -12.49466701
  -exchange      EXHF   =         0.00000000
  -V(xc)+E(xc)   XCENC  =        -1.88458481
  PAW double counting   =        17.15425371      -11.61415341
  entropy T*S    EENTRO =         0.00000000
  eigenvalues    EBANDS =        -9.36858043
  atomic energy  EATOM  =        17.77762371
  Solvation  Ediel_sol  =         0.00000000
  ---------------------------------------------------
  free energy    TOTEN  =        -4.06806372 eV

  energy without entropy =       -4.06806372  energy(sigma->0) =       -4.06806372


--------------------------------------------------------------------------------------------------------




 average (electrostatic) potential at core
  the test charge radii are     1.0393  0.5883
  (the norm of the test charge is              1.0000)
       1 -38.1873       2 -34.9414



 E-fermi :  -3.5380     XC(G=0):  -2.1809     alpha+bet : -0.6982

 Fermi energy:        -3.5379851462

 k-point     1 :       0.0000    0.0000    0.0000
  band No.  band energies     occupation 
      1      -4.6843      2.00000
      2      -1.3427      0.00000
      3       0.6746      0.00000
      4       0.6746      0.00000
      5       1.3897      0.00000
      6       1.7629      0.00000
      7       2.1965      0.00000
      8       3.7666      0.00000
      9       4.4771      0.00000
     10       4.4771      0.00000
     11       5.2339      0.00000
     12       5.2339      0.00000
     13       5.3910      0.00000
     14       5.5868      0.00000
     15       5.6930      0.00000
     16       5.8953      0.00000
     17       5.8953      0.00000
     18       6.0173      0.00000
     19       6.0821      0.00000
     20       8.6727      0.00000
     21       8.9944      0.00000
     22       8.9944      0.00000
     23       9.3023      0.00000
     24       9.3142      0.00000
     25       9.3142      0.00000
     26       9.3929      0.00000
     27       9.6733      0.00000
     28      10.1133      0.00000
     29      11.5935      0.00000
     30      11.6632      0.00000
     31      11.6632      0.00000
     32      12.4413      0.00000
     33      13.3798      0.00000
     34      14.7172      0.00000
     35      14.9758      0.00000
     36      14.9758      0.00000
     37      15.0884      0.00000
     38      15.8255      0.00000
     39      15.8255      0.00000
     40      16.0029      0.00000
     41      16.2888      0.00000
     42      16.2990      0.00000
     43      16.2990      0.00000
     44      16.4155      0.00000
     45      16.5291      0.00000
     46      16.8016      0.00000
     47      16.8016      0.00000
     48      16.8204      0.00000
     49      16.8204      0.00000
     50      16.9595      0.00000
     51      17.0638      0.00000
     52      17.1890      0.00000
     53      17.2052      0.00000
     54      17.2052      0.00000
     55      17.3069      0.00000
     56      17.3648      0.00000
     57      17.7503      0.00000
     58      19.5543      0.00000
     59      19.5543      0.00000
     60      19.5715      0.00000
     61      19.8655      0.00000
     62      19.9561      0.00000
     63      19.9561      0.00000
     64      20.0239      0.00000
     65      20.1753      0.00000
     66      20.6543      0.00000
     67      20.6922      0.00000
     68      20.6922      0.00000
     69      20.7023      0.00000
     70      20.7341      0.00000
     71      20.7681      0.00000
     72      20.7681      0.00000
     73      20.7877      0.00000
     74      20.8163      0.00000
     75      20.8163      0.00000
     76      20.8308      0.00000
     77      20.8553      0.00000
     78      20.8729      0.00000
     79      20.8729      0.00000
     80      20.9082      0.00000
     81      21.4969      0.00000
     82      25.3764      0.00000
     83      26.5358      0.00000
     84      26.5358      0.00000
     85      26.8897      0.00000
     86      27.3324      0.00000
     87      27.3324      0.00000
     88      27.4626      0.00000
     89      27.5089      0.00000
     90      27.5089      0.00000
     91      27.6610      0.00000
     92      27.7368      0.00000
     93      28.4376      0.00000
     94      29.2736      0.00000
     95      29.9629      0.00000
     96      29.9629      0.00000
     97      30.0509      0.00000
     98      30.2831      0.00000
     99      30.6262      0.00000
    100      30.7743      0.00000
    101      30.7743      0.00000
    102      30.8106      0.00000
    103      30.9783      0.00000
    104      30.9783      0.00000
    105      31.0512      0.00000
    106      31.1327      0.00000
    107      31.8381      0.00000
    108      31.8381      0.00000
    109      31.8381      0.00000
    110      31.8584      0.00000
    111      31.8737      0.00000
    112      31.8737      0.00000
    113      31.8795      0.00000
    114      31.9164      0.00000
    115      31.9686      0.00000
    116      31.9985      0.00000
    117      32.0001      0.00000
    118      32.0001      0.00000
    119      32.0128      0.00000
    120      32.0128      0.00000
    121      32.0182      0.00000
    122      32.0355      0.00000
    123      32.9354      0.00000
    124      33.9366      0.00000
    125      34.2297      0.00000
    126      34.3202      0.00000
    127      34.3202      0.00000
    128      34.5893      0.00000
    129      34.6408      0.00000
    130      34.8662      0.00000
    131      34.8662      0.00000
    132      35.0349      0.00000
    133      35.0770      0.00000
    134      35.0770      0.00000
    135      35.0874      0.00000
    136      35.1204      0.00000
    137      35.1204      0.00000
    138      35.2223      0.00000
    139      35.2223      0.00000
    140      35.2752      0.00000
    141      35.6770      0.00000
    142      35.7263      0.00000
    143      35.7263      0.00000
    144      35.7644      0.00000
    145      35.8794      0.00000
    146      35.8898      0.00000
    147      36.7616      0.00000
    148      38.5481      0.00000
    149      38.6663      0.00000
    150      38.6663      0.00000
    151      38.7388      0.00000
    152      38.9541      0.00000
    153      39.0051      0.00000
    154      39.0051      0.00000
    155      39.0321      0.00000
    156      39.0971      0.00000
    157      39.1025      0.00000
    158      39.1025      0.00000
    159      39.1350      0.00000
    160      39.1655      0.00000
    161      39.1655      0.00000
    162      39.1660      0.00000
    163      39.1838      0.00000
    164      39.1838      0.00000
    165      39.1841      0.00000
    166      39.1945      0.00000
    167      39.2494      0.00000
    168      39.2534      0.00000
    169      39.2622      0.00000
    170      39.2622      0.00000
    171      40.4605      0.00000
    172      42.1896      0.00000
    173      42.2812      0.00000
    174      42.2812      0.00000
    175      42.5620      0.00000
    176      42.5620      0.00000
    177      42.5851      0.00000
    178      42.6835      0.00000
    179      42.9843      0.00000
    180      44.3768      0.00000
    181      44.7673      0.00000
    182      44.7673      0.00000
    183      45.3616      0.00000
    184      45.3616      0.00000
    185      45.4558      0.00000
    186      45.4868      0.00000
    187      45.7213      0.00000
    188      45.7241      0.00000
    189      45.7241      0.00000
    190      45.8293      0.00000
    191      46.0028      0.00000
    192      46.3649      0.00000
    193      46.5031      0.00000
    194      46.5031      0.00000
    195      46.5776      0.00000
    196      46.5776      0.00000
    197      46.6645      0.00000
    198      46.7014      0.00000
    199      46.7500      0.00000
    200      46.7517      0.00000
    201      46.7517      0.00000
    202      46.7610      0.00000
    203      47.8213      0.00000
    204      48.9134      0.00000
    205      48.9217      0.00000
    206      48.9217      0.00000
    207      49.0917      0.00000
    208      49.3021      0.00000
    209      49.4642      0.00000
    210      49.4642      0.00000
    211      49.6069      0.00000
    212      49.7413      0.00000
    213      49.7447      0.00000
    214      49.7447      0.00000
    215      49.9150      0.00000
    216      49.9304      0.00000
    217      49.9304      0.00000
    218      49.9951      0.00000
    219      50.0496      0.00000
    220      50.1356      0.00000
    221      50.1356      0.00000
    222      50.1814      0.00000
    223      50.1825      0.00000
    224      50.2003      0.00000
    225      50.2003      0.00000
    226      50.2065      0.00000
    227      50.5023      0.00000
    228      50.5474      0.00000
    229      50.5536      0.00000
    230      50.5568      0.00000
    231      50.5568      0.00000
    232      50.5871      0.00000
    233      50.5935      0.00000
    234      50.5935      0.00000
    235      50.6305      0.00000
    236      50.6572      0.00000
    237      50.6572      0.00000
    238      50.6587      0.00000
    239      50.6775      0.00000
    240      50.6855      0.00000
    241      50.6855      0.00000
    242      50.6977      0.00000
    243      50.7899      0.00000
    244      50.8015      0.00000
    245      50.8160      0.00000
    246      50.8160      0.00000
    247      50.8362      0.00000
    248      50.8362      0.00000
    249      50.8494      0.00000
    250      50.8790      0.00000
    251      52.1557      0.00000
    252      54.4661      0.00000
    253      55.3889      0.00000
    254      55.3889      0.00000
    255      56.0256      0.00000
    256      56.4425      0.00000
    257      57.5204      0.00000
    258      58.5425      0.00000
    259      58.5425      0.00000
    260      58.6852      0.00000
    261      59.3208      0.00000
    262      60.2432      0.00000
    263      60.2432      0.00000
    264      60.2523      0.00000
    265      60.3210      0.00000
    266      60.4084      0.00000
    267      60.4623      0.00000
    268      60.5713      0.00000
    269      60.6041      0.00000
    270      60.6041      0.00000
    271      60.7973      0.00000
    272      60.7973      0.00000
    273      60.9662      0.00000
    274      60.9877      0.00000
    275      61.1385      0.00000
    276      61.1385      0.00000
    277      61.1825      0.00000
    278      61.1825      0.00000
    279      61.2244      0.00000
    280      61.2846      0.00000
    281      61.2846      0.00000
    282      61.3151      0.00000
    283      61.6056      0.00000
    284      61.6389      0.00000
    285      61.6465      0.00000
    286      61.6541      0.00000
    287      61.6595      0.00000
    288      61.6595      0.00000
    289      61.6756      0.00000
    290      61.6756      0.00000
    291      61.7307      0.00000
    292      61.7514      0.00000
    293      61.7514      0.00000
    294      61.7663      0.00000
    295      61.7921      0.00000
    296      61.8025      0.00000
    297      61.8025      0.00000
    298      61.8063      0.00000
    299      61.8178      0.00000
    300      61.8622      0.00000
    301      61.8622      0.00000
    302      61.8872      0.00000
    303      61.9876      0.00000
    304      61.9904      0.00000
    305      63.0933      0.00000
    306      63.5533      0.00000
    307      63.5533      0.00000
    308      63.5653      0.00000
    309      64.4836      0.00000
    310      64.4836      0.00000
    311      64.5424      0.00000
    312      64.5496      0.00000
    313      64.6491      0.00000
    314      64.6707      0.00000
    315      64.7152      0.00000
    316      64.7152      0.00000
    317      64.7276      0.00000
    318      64.9664      0.00000
    319      64.9664      0.00000
    320      65.1164      0.00000
    321      65.1229      0.00000
    322      65.1848      0.00000
    323      65.1916      0.00000
    324      65.2338      0.00000
    325      65.2338      0.00000
    326      65.2564      0.00000
    327      65.2688      0.00000
    328      65.2688      0.00000
    329      65.2792      0.00000
    330      65.2930      0.00000
    331      65.3018      0.00000
    332      65.3141      0.00000
    333      65.3141      0.00000
    334      65.3261      0.00000
    335      65.3269      0.00000
    336      65.3269      0.00000
    337      65.3383      0.00000
    338      65.3568      0.00000
    339      65.3568      0.00000
    340      65.3589      0.00000
    341      67.2086      0.00000
    342      67.5296      0.00000
    343      67.5296      0.00000
    344      67.5698      0.00000
    345      68.4817      0.00000
    346      68.6470      0.00000
    347      68.6538      0.00000
    348      68.6538      0.00000
    349      68.7424      0.00000
    350      68.7424      0.00000
    351      68.8108      0.00000
    352      68.8231      0.00000
    353      68.8678      0.00000
    354      68.8960      0.00000
    355      68.8960      0.00000
    356      68.9185      0.00000
    357      68.9349      0.00000
    358      68.9476      0.00000
    359      69.0013      0.00000
    360      69.0013      0.00000
    361      69.0073      0.00000
    362      69.0073      0.00000
    363      69.0102      0.00000
    364      69.0209      0.00000
    365      69.9443      0.00000
    366      70.1362      0.00000
    367      70.3856      0.00000
    368      70.3856      0.00000
    369      71.5602      0.00000
    370      71.9336      0.00000
    371      71.9902      0.00000
    372      72.0705      0.00000
    373      72.0705      0.00000
    374      72.1572      0.00000
    375      72.1572      0.00000
    376      72.1817      0.00000
    377      72.2088      0.00000
    378      72.2088      0.00000
    379      72.2342      0.00000
    380      72.2384      0.00000
    381      72.3314      0.00000
    382      72.3314      0.00000
    383      72.4538      0.00000
    384      72.4657      0.00000
    385      72.4657      0.00000
    386      72.4662      0.00000
    387      72.5275      0.00000
    388      72.5438      0.00000
    389      74.0644      0.00000
    390      74.0751      0.00000
    391      74.0751      0.00000
    392      74.1004      0.00000
    393      75.3988      0.00000
    394      75.6750      0.00000
    395      75.7448      0.00000
    396      75.7448      0.00000
    397      75.9220      0.00000
    398      75.9309      0.00000
    399      75.9309      0.00000
    400      75.9606      0.00000
    401      75.9686      0.00000
    402      76.0518      0.00000
    403      76.0612      0.00000
    404      76.0612      0.00000
    405      76.0935      0.00000
    406      76.0935      0.00000
    407      76.1352      0.00000
    408      76.1383      0.00000
    409      76.1670      0.00000
    410      76.2136      0.00000
    411      76.2136      0.00000
    412      76.2357      0.00000
    413      76.4131      0.00000
    414      76.5471      0.00000
    415      76.5471      0.00000
    416      76.6267      0.00000
    417      76.6297      0.00000
    418      76.6630      0.00000
    419      76.6630      0.00000
    420      76.6684      0.00000
    421      76.6827      0.00000
    422      76.6959      0.00000
    423      76.6959      0.00000
    424      76.6960      0.00000
    425      76.7122      0.00000
    426      76.7202      0.00000
    427      76.7202      0.00000
    428      76.7299      0.00000
    429      76.7489      0.00000
    430      76.7526      0.00000
    431      76.7766      0.00000
    432      76.7766      0.00000
    433      76.7812      0.00000
    434      76.7812      0.00000
    435      76.8117      0.00000
    436      76.8211      0.00000
    437      77.8157      0.00000
    438      77.9799      0.00000
    439      77.9799      0.00000
    440      78.0163      0.00000
    441      79.0576      0.00000
    442      79.0576      0.00000
    443      79.1242      0.00000
    444      79.1906      0.00000
    445      80.0443      0.00000
    446      80.2248      0.00000
    447      80.2313      0.00000
    448      80.2313      0.00000
    449      80.2665      0.00000
    450      80.2735      0.00000
    451      80.2735      0.00000
    452      80.3054      0.00000
    453      80.4083      0.00000
    454      80.4083      0.00000
    455      80.4280      0.00000
    456      80.4344      0.00000
    457      80.4374      0.00000
    458      80.4391      0.00000
    459      80.4391      0.00000
    460      80.4489      0.00000
    461      80.7706      0.00000
    462      81.3315      0.00000
    463      81.3315      0.00000
    464      81.3739      0.00000
    465      86.5426      0.00000
    466      87.1308      0.00000
    467      87.1588      0.00000
    468      87.1622      0.00000
    469      87.1622      0.00000
    470      87.2839      0.00000
    471      87.2839      0.00000
    472      87.3412      0.00000
    473      87.3551      0.00000
    474      87.4026      0.00000
    475      87.4026      0.00000
    476      87.4658      0.00000
    477      87.4967      0.00000
    478      87.5015      0.00000
    479      87.5015      0.00000
    480      87.5353      0.00000
    481      87.5549      0.00000
    482      87.5631      0.00000
    483      87.5631      0.00000
    484      87.5867      0.00000
    485      87.8661      0.00000
    486      87.9428      0.00000
    487      87.9428      0.00000
    488      88.0591      0.00000
    489      88.7006      0.00000
    490      89.4694      0.00000
    491      89.6507      0.00000
    492      89.9951      0.00000
    493      90.0156      0.00000
    494      90.0156      0.00000
    495      90.2286      0.00000
    496      90.2539      0.00000
    497      90.2753      0.00000
    498      90.2753      0.00000
    499      90.4746      0.00000
    500      90.4746      0.00000
    501      90.4961      0.00000
    502      90.6012      0.00000
    503      90.8680      0.00000
    504      91.2137      0.00000
    505      91.2137      0.00000
    506      91.2669      0.00000
    507      91.2966      0.00000
    508      91.2966      0.00000
    509      91.3338      0.00000
    510      91.3517      0.00000
    511      91.3555      0.00000
    512      91.5014      0.00000
    513      91.5048      0.00000
    514      91.5048      0.00000
    515      91.5124      0.00000
    516      92.2228      0.00000
    517      92.2228      0.00000
    518      92.2967      0.00000
    519      93.6226      0.00000
    520      93.7039      0.00000
    521      93.9175      0.00000
    522      94.0328      0.00000
    523      94.0328      0.00000
    524      94.0450      0.00000
    525      94.2077      0.00000
    526      94.2326      0.00000
    527      94.3945      0.00000
    528      94.3945      0.00000
    529      94.4441      0.00000
    530      94.4441      0.00000
    531      94.4478      0.00000
    532      94.4570      0.00000
    533      94.6108      0.00000
    534      94.6108      0.00000
    535      94.6523      0.00000
    536      94.6932      0.00000
    537      94.6959      0.00000
    538      94.7118      0.00000
    539      94.7118      0.00000
    540      94.7641      0.00000
    541      94.7641      0.00000
    542      94.7745      0.00000
    543      94.7791      0.00000
    544      94.7972      0.00000
    545      94.7972      0.00000
    546      94.8029      0.00000
    547      94.8046      0.00000
    548      94.8237      0.00000
    549      94.8594      0.00000
    550      94.8594      0.00000
    551      94.8706      0.00000
    552      94.8706      0.00000
    553      94.8838      0.00000
    554      94.9201      0.00000
    555      94.9352      0.00000
    556      94.9352      0.00000
    557      94.9625      0.00000
    558      95.2024      0.00000
    559      95.2406      0.00000
    560      95.2598      0.00000
    561      95.2598      0.00000
    562      95.2873      0.00000
    563      95.2940      0.00000
    564      95.2940      0.00000
    565      95.2957      0.00000
    566      95.3019      0.00000
    567      95.3346      0.00000
    568      95.3350      0.00000
    569      95.3350      0.00000
    570      95.3469      0.00000
    571      95.3477      0.00000
    572      95.3539      0.00000
    573      95.3539      0.00000
    574      95.3655      0.00000
    575      95.3762      0.00000
    576      95.3762      0.00000
    577      95.3828      0.00000
    578      95.4135      0.00000
    579      95.4136      0.00000
    580      95.4183      0.00000
    581      95.4183      0.00000
    582      95.4541      0.00000
    583      95.4556      0.00000
    584      95.4567      0.00000
    585      95.4567      0.00000
    586      95.5726      0.00000
    587      95.5741      0.00000
    588      96.9758      0.00000
    589      97.0319      0.00000
    590      97.0319      0.00000
    591      98.2538      0.00000
    592      98.4565      0.00000
    593      98.4565      0.00000
    594      98.4574      0.00000
    595      98.4694      0.00000
    596      98.4984      0.00000
    597      98.5766      0.00000
    598      98.5904      0.00000
    599      98.5904      0.00000
    600      98.5942      0.00000
    601      98.6193      0.00000
    602      98.7501      0.00000
    603      98.7501      0.00000
    604      98.7850      0.00000
    605      98.7900      0.00000
    606      98.7900      0.00000
    607      98.7971      0.00000
    608      98.8016      0.00000
    609      98.8189      0.00000
    610      98.8254      0.00000
    611      98.8254      0.00000
    612      98.8403      0.00000
    613      98.8403      0.00000
    614      98.8515      0.00000
    615      98.8598      0.00000
    616      98.8822      0.00000
    617      98.8828      0.00000
    618      98.8828      0.00000
    619      98.8976      0.00000
    620     100.3399      0.00000
    621     100.3657      0.00000
    622     100.3657      0.00000
    623     103.3854      0.00000
    624     104.2415      0.00000
    625     104.7095      0.00000
    626     104.7095      0.00000
    627     104.7237      0.00000
    628     104.7968      0.00000
    629     105.0933      0.00000
    630     105.1573      0.00000
    631     105.1573      0.00000
    632     105.1592      0.00000
    633     105.4015      0.00000
    634     105.4015      0.00000
    635     105.5201      0.00000
    636     105.5531      0.00000
    637     105.5531      0.00000
    638     105.5915      0.00000
    639     105.6022      0.00000
    640     105.6085      0.00000
    641     105.6886      0.00000
    642     105.7307      0.00000
    643     105.7307      0.00000
    644     105.7630      0.00000
    645     105.7630      0.00000
    646     105.8148      0.00000
    647     105.8549      0.00000
    648     105.8785      0.00000
    649     105.8933      0.00000
    650     105.8933      0.00000
    651     105.9061      0.00000
    652     105.9250      0.00000
    653     105.9297      0.00000
    654     105.9297      0.00000
    655     105.9390      0.00000
    656     105.9756      0.00000
    657     105.9756      0.00000
    658     106.0125      0.00000
    659     106.0352      0.00000
    660     106.0501      0.00000
    661     106.0816      0.00000
    662     106.0816      0.00000
    663     106.0938      0.00000
    664     106.1178      0.00000
    665     106.1178      0.00000
    666     106.1306      0.00000
    667     106.1591      0.00000
    668     106.4588      0.00000
    669     106.4614      0.00000
    670     106.4651      0.00000
    671     106.4679      0.00000
    672     106.4679      0.00000
    673     106.4856      0.00000
    674     106.4856      0.00000
    675     106.4901      0.00000
    676     106.5593      0.00000
    677     106.5634      0.00000
    678     106.5634      0.00000
    679     106.5657      0.00000
    680     106.5664      0.00000
    681     106.5838      0.00000
    682     106.5838      0.00000
    683     106.5917      0.00000
    684     106.7318      0.00000
    685     106.7358      0.00000
    686     106.7382      0.00000
    687     106.7382      0.00000
    688     106.7490      0.00000
    689     106.7510      0.00000
    690     106.7510      0.00000
    691     106.7672      0.00000
    692     108.1892      0.00000
    693     108.2628      0.00000
    694     108.2628      0.00000
    695     109.0214      0.00000
    696     109.3810      0.00000
    697     109.4081      0.00000
    698     109.4706      0.00000
    699     109.4706      0.00000
    700     109.5127      0.00000
    701     109.5760      0.00000
    702     109.5760      0.00000
    703     109.5919      0.00000
    704     109.5919      0.00000
    705     109.6267      0.00000
    706     109.6345      0.00000
    707     109.6359      0.00000
    708     109.6666      0.00000
    709     109.6698      0.00000
    710     109.6698      0.00000
    711     109.6947      0.00000
    712     109.7320      0.00000
    713     109.7568      0.00000
    714     109.7568      0.00000
    715     109.7936      0.00000
    716     110.0467      0.00000
    717     110.1372      0.00000
    718     110.1372      0.00000
    719     110.2135      0.00000
    720     110.2207      0.00000
    721     110.2402      0.00000
    722     110.2402      0.00000
    723     110.2489      0.00000
    724     110.2544      0.00000
    725     110.2544      0.00000
    726     110.2589      0.00000
    727     110.2602      0.00000
    728     110.2697      0.00000
    729     110.2730      0.00000
    730     110.2730      0.00000
    731     110.2791      0.00000
    732     110.3224      0.00000
    733     110.3240      0.00000
    734     110.3491      0.00000
    735     110.3491      0.00000
    736     110.3501      0.00000
    737     110.3501      0.00000
    738     110.3844      0.00000
    739     110.3890      0.00000
    740     112.0265      0.00000
    741     112.1958      0.00000
    742     112.1958      0.00000
    743     115.5105      0.00000
    744     116.6041      0.00000
    745     116.6041      0.00000
    746     116.7107      0.00000
    747     116.7386      0.00000
    748     116.7760      0.00000
    749     116.8252      0.00000
    750     116.8252      0.00000
    751     116.8272      0.00000
    752     117.6313      0.00000
    753     117.7918      0.00000
    754     117.7918      0.00000
    755     119.0095      0.00000
    756     120.1115      0.00000
    757     120.3318      0.00000
    758     120.3750      0.00000
    759     120.3750      0.00000
    760     120.5675      0.00000
    761     120.6414      0.00000
    762     120.6414      0.00000
    763     120.7083      0.00000
    764     120.7183      0.00000
    765     120.8786      0.00000
    766     120.8786      0.00000
    767     120.8922      0.00000
    768     120.8930      0.00000
    769     120.8964      0.00000
    770     120.9153      0.00000
    771     120.9153      0.00000
    772     120.9796      0.00000
    773     120.9801      0.00000
    774     120.9801      0.00000
    775     120.9881      0.00000
    776     121.0200      0.00000
    777     121.0428      0.00000
    778     121.0428      0.00000
    779     121.0593      0.00000
    780     121.0751      0.00000
    781     121.1110      0.00000
    782     121.1211      0.00000
    783     121.1211      0.00000
    784     121.1427      0.00000
    785     121.1606      0.00000
    786     121.1606      0.00000
    787     121.1682      0.00000
    788     121.1808      0.00000
    789     121.1808      0.00000
    790     121.1824      0.00000
    791     121.1909      0.00000
    792     121.2049      0.00000
    793     121.2138      0.00000
    794     121.2252      0.00000
    795     121.2252      0.00000
    796     121.2381      0.00000
    797     121.2403      0.00000
    798     121.2403      0.00000
    799     121.2477      0.00000
    800     122.1995      0.00000
    801     122.3150      0.00000
    802     122.3150      0.00000
    803     123.0759      0.00000
    804     123.5196      0.00000
    805     123.6033      0.00000
    806     123.6033      0.00000
    807     123.6423      0.00000
    808     123.7879      0.00000
    809     123.9632      0.00000
    810     124.1774      0.00000
    811     124.2164      0.00000
    812     124.2164      0.00000
    813     124.2853      0.00000
    814     124.2853      0.00000
    815     124.2973      0.00000
    816     124.3146      0.00000
    817     124.3146      0.00000
    818     124.3770      0.00000
    819     124.4537      0.00000
    820     124.4537      0.00000
    821     124.4653      0.00000
    822     124.4822      0.00000
    823     124.4959      0.00000
    824     124.4959      0.00000
    825     124.5013      0.00000
    826     124.5087      0.00000
    827     124.5454      0.00000
    828     124.6308      0.00000
    829     124.6505      0.00000
    830     124.6505      0.00000
    831     124.6689      0.00000
    832     125.0083      0.00000
    833     125.0140      0.00000
    834     125.0264      0.00000
    835     125.0264      0.00000
    836     125.0334      0.00000
    837     125.0427      0.00000
    838     125.0427      0.00000
    839     125.0505      0.00000
    840     125.1875      0.00000
    841     125.1914      0.00000
    842     125.1914      0.00000
    843     125.1946      0.00000
    844     125.2073      0.00000
    845     125.2089      0.00000
    846     125.2089      0.00000
    847     125.2146      0.00000
    848     126.2678      0.00000
    849     126.4843      0.00000
    850     126.4843      0.00000
    851     127.5533      0.00000
    852     128.0901      0.00000
    853     128.2378      0.00000
    854     128.2379      0.00000
    855     128.2558      0.00000
    856     128.2558      0.00000
    857     128.3663      0.00000
    858     128.3887      0.00000
    859     128.3887      0.00000
    860     128.4252      0.00000
    861     128.4587      0.00000
    862     128.4587      0.00000
    863     128.4869      0.00000
    864     128.5099      0.00000
    865     128.5220      0.00000
    866     128.5220      0.00000
    867     128.5522      0.00000
    868     128.5593      0.00000
    869     128.5593      0.00000
    870     128.5620      0.00000
    871     128.5813      0.00000
    872     128.5853      0.00000
    873     128.6013      0.00000
    874     128.6013      0.00000
    875     128.6049      0.00000
    876     128.6339      0.00000
    877     128.6379      0.00000
    878     128.6379      0.00000
    879     128.6430      0.00000
    880     128.6471      0.00000
    881     128.6471      0.00000
    882     128.6586      0.00000
    883     128.6652      0.00000
    884     128.6669      0.00000
    885     128.6895      0.00000
    886     128.6942      0.00000
    887     128.6942      0.00000
    888     128.7026      0.00000
    889     128.7090      0.00000
    890     128.7090      0.00000
    891     128.7103      0.00000
    892     128.7174      0.00000
    893     128.7174      0.00000
    894     128.7313      0.00000
    895     128.7324      0.00000
    896     129.3167      0.00000
    897     129.8574      0.00000
    898     129.8574      0.00000
    899     130.0167      0.00000
    900     130.7056      0.00000
    901     130.9134      0.00000
    902     131.5373      0.00000
    903     131.7060      0.00000
    904     131.7060      0.00000
    905     131.9064      0.00000
    906     131.9624      0.00000
    907     132.0143      0.00000
    908     132.0143      0.00000
    909     132.0147      0.00000
    910     132.0848      0.00000
    911     132.1120      0.00000
    912     132.1120      0.00000
    913     132.1831      0.00000
    914     132.1879      0.00000
    915     132.2248      0.00000
    916     132.2248      0.00000
    917     132.2403      0.00000
    918     132.2999      0.00000
    919     132.3163      0.00000
    920     132.3207      0.00000
    921     132.3207      0.00000
    922     132.3302      0.00000
    923     132.3344      0.00000
    924     132.3344      0.00000
    925     132.3509      0.00000
    926     133.6751      0.00000
    927     133.7725      0.00000
    928     133.7725      0.00000
    929     134.4093      0.00000
    930     134.8292      0.00000
    931     134.9437      0.00000
    932     135.2613      0.00000
    933     135.4343      0.00000
    934     135.4343      0.00000
    935     135.4940      0.00000
    936     135.7129      0.00000
    937     135.7129      0.00000
    938     135.7591      0.00000
    939     135.7591      0.00000
    940     135.8359      0.00000
    941     135.8359      0.00000
    942     135.8500      0.00000
    943     135.8745      0.00000
    944     136.3647      0.00000
    945     136.4206      0.00000
    946     136.4206      0.00000
    947     136.4239      0.00000
    948     136.5901      0.00000
    949     136.5992      0.00000
    950     136.7101      0.00000
    951     136.7459      0.00000
    952     136.7459      0.00000
    953     137.9761      0.00000
    954     138.8532      0.00000
    955     138.8532      0.00000
    956     138.8742      0.00000
    957     138.9394      0.00000
    958     138.9782      0.00000
    959     139.0517      0.00000
    960     139.1281      0.00000
    961     139.1349      0.00000
    962     139.1349      0.00000
    963     139.1876      0.00000
    964     139.1876      0.00000
    965     139.2808      0.00000
    966     139.2879      0.00000
    967     139.2879      0.00000
    968     139.3178      0.00000
    969     139.3502      0.00000
    970     139.3955      0.00000
    971     139.4025      0.00000
    972     139.4025      0.00000
    973     139.4500      0.00000
    974     139.5321      0.00000
    975     139.6085      0.00000
    976     139.6617      0.00000
    977     139.6617      0.00000
    978     139.7057      0.00000
    979     139.7278      0.00000
    980     139.7544      0.00000
    981     139.7544      0.00000
    982     139.7818      0.00000
    983     139.8148      0.00000
    984     139.8243      0.00000
    985     139.8243      0.00000
    986     139.8327      0.00000
    987     139.8453      0.00000
    988     139.8786      0.00000
    989     139.8834      0.00000
    990     139.8834      0.00000
    991     139.8895      0.00000
    992     139.8895      0.00000
    993     139.8979      0.00000
    994     139.8979      0.00000
    995     139.9007      0.00000
    996     139.9070      0.00000
    997     139.9128      0.00000
    998     139.9803      0.00000
    999     139.9977      0.00000
   1000     139.9989      0.00000
   1001     139.9989      0.00000
   1002     140.0120      0.00000
   1003     140.0255      0.00000
   1004     140.0255      0.00000
   1005     140.0299      0.00000
   1006     140.0621      0.00000
   1007     140.0621      0.00000
   1008     140.0728      0.00000
   1009     140.0780      0.00000
   1010     140.0833      0.00000
   1011     140.0837      0.00000
   1012     140.0837      0.00000
   1013     140.0888      0.00000
   1014     140.1163      0.00000
   1015     140.1274      0.00000
   1016     140.1274      0.00000
   1017     140.1306      0.00000
   1018     140.1312      0.00000
   1019     140.1312      0.00000
   1020     140.1313      0.00000
   1021     140.1419      0.00000
   1022     142.6800      0.00000
   1023     142.7375      0.00000
   1024     142.7375      0.00000
   1025     145.4035      0.00000
   1026     146.0293      0.00000
   1027     146.3420      0.00000
   1028     146.4901      0.00000
   1029     146.5924      0.00000
   1030     146.5924      0.00000
   1031     146.6501      0.00000
   1032     146.6501      0.00000
   1033     146.6632      0.00000
   1034     146.6940      0.00000
   1035     146.7106      0.00000
   1036     146.7106      0.00000
   1037     146.7192      0.00000
   1038     146.8028      0.00000
   1039     146.8028      0.00000
   1040     146.9021      0.00000
   1041     146.9021      0.00000
   1042     146.9079      0.00000
   1043     146.9201      0.00000
   1044     147.0860      0.00000
   1045     147.1044      0.00000
   1046     147.3711      0.00000
   1047     147.7207      0.00000
   1048     147.7207      0.00000
   1049     148.1934      0.00000
   1050     149.1116      0.00000
   1051     149.1116      0.00000
   1052     149.2098      0.00000
   1053     149.5127      0.00000
   1054     149.6076      0.00000
   1055     149.6359      0.00000
   1056     149.6823      0.00000
   1057     149.6823      0.00000
   1058     149.7071      0.00000
   1059     149.7512      0.00000
   1060     149.9321      0.00000
   1061     149.9321      0.00000
   1062     149.9576      0.00000
   1063     150.1125      0.00000
   1064     150.1305      0.00000
   1065     150.1305      0.00000
   1066     150.3030      0.00000
   1067     150.3030      0.00000
   1068     150.3186      0.00000
   1069     150.3810      0.00000
   1070     150.3944      0.00000
   1071     150.4076      0.00000
   1072     150.5038      0.00000
   1073     150.5038      0.00000
   1074     150.5340      0.00000
   1075     150.5502      0.00000
   1076     150.5502      0.00000
   1077     150.5811      0.00000
   1078     150.5879      0.00000
   1079     150.5879      0.00000
   1080     150.6608      0.00000
   1081     150.6695      0.00000
   1082     150.6888      0.00000
   1083     150.7165      0.00000
   1084     150.7179      0.00000
   1085     150.7179      0.00000
   1086     150.7689      0.00000
   1087     150.7689      0.00000
   1088     150.7744      0.00000
   1089     150.7841      0.00000
   1090     150.9183      0.00000
   1091     150.9313      0.00000
   1092     150.9606      0.00000
   1093     150.9606      0.00000
   1094     150.9621      0.00000
   1095     150.9820      0.00000
   1096     150.9941      0.00000
   1097     150.9941      0.00000
   1098     151.1209      0.00000
   1099     151.1254      0.00000
   1100     151.1254      0.00000
   1101     151.1290      0.00000
   1102     151.1356      0.00000
   1103     151.1387      0.00000
   1104     151.1453      0.00000
   1105     151.1453      0.00000
   1106     151.1505      0.00000
   1107     151.1554      0.00000
   1108     151.1554      0.00000
   1109     151.1623      0.00000
   1110     151.2390      0.00000
   1111     151.2657      0.00000
   1112     151.2657      0.00000
   1113     151.2701      0.00000
   1114     151.2807      0.00000
   1115     151.2807      0.00000
   1116     151.2828      0.00000
   1117     151.2896      0.00000
   1118     151.2941      0.00000
   1119     151.2969      0.00000
   1120     151.2976      0.00000
   1121     151.2976      0.00000
   1122     151.2977      0.00000
   1123     151.3020      0.00000
   1124     151.3020      0.00000
   1125     151.3082      0.00000
   1126     151.3114      0.00000
   1127     151.3146      0.00000
   1128     151.3148      0.00000
   1129     151.3148      0.00000
   1130     151.3207      0.00000
   1131     151.3207      0.00000
   1132     151.3213      0.00000
   1133     151.3241      0.00000
   1134     151.3538      0.00000
   1135     151.3571      0.00000
   1136     151.3887      0.00000
   1137     151.3887      0.00000
   1138     151.3959      0.00000
   1139     151.3959      0.00000
   1140     151.4296      0.00000
   1141     151.4491      0.00000
   1142     153.3938      0.00000
   1143     153.3938      0.00000
   1144     153.4464      0.00000
   1145     153.9086      0.00000
   1146     153.9881      0.00000
   1147     154.0575      0.00000
   1148     154.0575      0.00000
   1149     154.0670      0.00000
   1150     154.2646      0.00000
   1151     154.2646      0.00000
   1152     154.2998      0.00000
   1153     154.3244      0.00000
   1154     154.3574      0.00000
   1155     154.3755      0.00000
   1156     154.3755      0.00000
   1157     154.3807      0.00000
   1158     154.4302      0.00000
   1159     154.4667      0.00000
   1160     154.4845      0.00000
   1161     154.4845      0.00000
   1162     154.4923      0.00000
   1163     154.4923      0.00000
   1164     154.5065      0.00000
   1165     154.5220      0.00000
   1166     154.7983      0.00000
   1167     154.8607      0.00000
   1168     154.9227      0.00000
   1169     154.9227      0.00000
   1170     154.9334      0.00000
   1171     154.9334      0.00000
   1172     154.9553      0.00000
   1173     154.9731      0.00000
   1174     154.9897      0.00000
   1175     154.9922      0.00000
   1176     154.9922      0.00000
   1177     154.9937      0.00000
   1178     155.0008      0.00000
   1179     155.0020      0.00000
   1180     155.0020      0.00000
   1181     155.0079      0.00000
   1182     155.0365      0.00000
   1183     155.0381      0.00000
   1184     155.0381      0.00000
   1185     155.0456      0.00000
   1186     155.1008      0.00000
   1187     155.1071      0.00000
   1188     155.1071      0.00000
   1189     155.1268      0.00000
   1190     156.7847      0.00000
   1191     156.9395      0.00000
   1192     156.9395      0.00000
   1193     157.8003      0.00000
   1194     158.0001      0.00000
   1195     158.0001      0.00000
   1196     158.0512      0.00000
   1197     158.0627      0.00000
   1198     158.0658      0.00000
   1199     158.1966      0.00000
   1200     158.2295      0.00000
   1201     158.2295      0.00000
   1202     158.2766      0.00000
   1203     158.2766      0.00000
   1204     158.2866      0.00000
   1205     158.2958      0.00000
   1206     158.3653      0.00000
   1207     158.3653      0.00000
   1208     158.3661      0.00000
   1209     158.3800      0.00000
   1210     158.3822      0.00000
   1211     158.3822      0.00000
   1212     158.3946      0.00000
   1213     158.4116      0.00000
   1214     159.9100      0.00000
   1215     160.1454      0.00000
   1216     160.1454      0.00000
   1217     161.2239      0.00000
   1218     161.7492      0.00000
   1219     161.8164      0.00000
   1220     161.8823      0.00000
   1221     161.8823      0.00000
   1222     161.9046      0.00000
   1223     161.9371      0.00000
   1224     161.9371      0.00000
   1225     161.9769      0.00000
   1226     161.9799      0.00000
   1227     161.9799      0.00000
   1228     162.0190      0.00000
   1229     162.0244      0.00000
   1230     162.0290      0.00000
   1231     162.0391      0.00000
   1232     162.0391      0.00000
   1233     162.0625      0.00000
   1234     162.0858      0.00000
   1235     162.0858      0.00000
   1236     162.0910      0.00000
   1237     162.1013      0.00000
   1238     163.1240      0.00000
   1239     163.1240      0.00000
   1240     163.2369      0.00000
   1241     164.2873      0.00000
   1242     164.5330      0.00000
   1243     164.8628      0.00000
   1244     164.8628      0.00000
   1245     164.8692      0.00000
   1246     164.9711      0.00000
   1247     164.9983      0.00000
   1248     164.9983      0.00000
   1249     165.0439      0.00000
   1250     165.0589      0.00000
   1251     165.0814      0.00000
   1252     165.1360      0.00000
   1253     165.1360      0.00000
   1254     165.1868      0.00000
   1255     165.2515      0.00000
   1256     165.2515      0.00000
   1257     165.3208      0.00000
   1258     165.3718      0.00000
   1259     165.3718      0.00000
   1260     165.3720      0.00000
   1261     165.3994      0.00000
   1262     165.4240      0.00000
   1263     165.4434      0.00000
   1264     165.4476      0.00000
   1265     165.4476      0.00000
   1266     165.4942      0.00000
   1267     165.4942      0.00000
   1268     165.4949      0.00000
   1269     165.5111      0.00000
   1270     165.5408      0.00000
   1271     165.5628      0.00000
   1272     165.5628      0.00000
   1273     165.5661      0.00000
   1274     165.5869      0.00000
   1275     165.5869      0.00000
   1276     165.5918      0.00000
   1277     165.5938      0.00000
   1278     165.6066      0.00000
   1279     165.6242      0.00000
   1280     165.6581      0.00000
   1281     165.6581      0.00000
   1282     165.6662      0.00000
   1283     165.6662      0.00000
   1284     165.6933      0.00000
   1285     165.7124      0.00000
   1286     166.0794      0.00000
   1287     166.0968      0.00000
   1288     166.1017      0.00000
   1289     166.1017      0.00000
   1290     166.1074      0.00000
   1291     166.1074      0.00000
   1292     166.1155      0.00000
   1293     166.1343      0.00000
   1294     166.1571      0.00000
   1295     166.1677      0.00000
   1296     166.1905      0.00000
   1297     166.1905      0.00000
   1298     166.2019      0.00000
   1299     166.2019      0.00000
   1300     166.2049      0.00000
   1301     166.2137      0.00000
   1302     166.2226      0.00000
   1303     166.2315      0.00000
   1304     166.2315      0.00000
   1305     166.2393      0.00000
   1306     166.2398      0.00000
   1307     166.2454      0.00000
   1308     166.2454      0.00000
   1309     166.2592      0.00000
   1310     168.4797      0.00000
   1311     168.6384      0.00000
   1312     168.6384      0.00000
   1313     169.1565      0.00000
   1314     169.3793      0.00000
   1315     169.3972      0.00000
   1316     169.4280      0.00000
   1317     169.4280      0.00000
   1318     169.4430      0.00000
   1319     169.4484      0.00000
   1320     169.4721      0.00000
   1321     169.4721      0.00000
   1322     169.4941      0.00000
   1323     169.4941      0.00000
   1324     169.5282      0.00000
   1325     169.5282      0.00000
   1326     169.5437      0.00000
   1327     169.5466      0.00000
   1328     169.5482      0.00000
   1329     169.5809      0.00000
   1330     169.5809      0.00000
   1331     169.5826      0.00000
   1332     169.5967      0.00000
   1333     169.6023      0.00000
   1334     169.6100      0.00000
   1335     169.6282      0.00000
   1336     169.6282      0.00000
   1337     169.6332      0.00000
   1338     169.6650      0.00000
   1339     169.6720      0.00000
   1340     169.6720      0.00000
   1341     169.6731      0.00000
   1342     169.6820      0.00000
   1343     169.6820      0.00000
   1344     169.6822      0.00000
   1345     169.6874      0.00000
   1346     169.7102      0.00000
   1347     169.7140      0.00000
   1348     169.7140      0.00000
   1349     169.7288      0.00000
   1350     169.7323      0.00000
   1351     169.7396      0.00000
   1352     169.7408      0.00000
   1353     169.7487      0.00000
   1354     169.7487      0.00000
   1355     169.7532      0.00000
   1356     169.7532      0.00000
   1357     169.7544      0.00000
   1358     173.2304      0.00000
   1359     173.7715      0.00000
   1360     173.7715      0.00000
   1361     176.3665      0.00000
   1362     176.7092      0.00000
   1363     176.7165      0.00000
   1364     176.7165      0.00000
   1365     176.7220      0.00000
   1366     176.9955      0.00000
   1367     177.1995      0.00000
   1368     177.1995      0.00000
   1369     177.9790      0.00000
   1370     178.8308      0.00000
   1371     179.0972      0.00000
   1372     179.1874      0.00000
   1373     179.4912      0.00000
   1374     179.5656      0.00000
   1375     179.5656      0.00000
   1376     179.8699      0.00000
   1377     179.8699      0.00000
   1378     179.9367      0.00000
   1379     180.0562      0.00000
   1380     180.1392      0.00000
   1381     180.1623      0.00000
   1382     180.1623      0.00000
   1383     180.2078      0.00000
   1384     180.2390      0.00000
   1385     180.2390      0.00000
   1386     180.2462      0.00000
   1387     180.2577      0.00000
   1388     180.3019      0.00000
   1389     180.3019      0.00000
   1390     180.3237      0.00000
   1391     180.3267      0.00000
   1392     180.3273      0.00000
   1393     180.3557      0.00000
   1394     180.3557      0.00000
   1395     180.3960      0.00000
   1396     180.7778      0.00000
   1397     180.9404      0.00000
   1398     180.9404      0.00000
   1399     180.9822      0.00000
   1400     181.0028      0.00000
   1401     181.0028      0.00000
   1402     181.0065      0.00000
   1403     181.0305      0.00000
   1404     181.0369      0.00000
   1405     181.0369      0.00000
   1406     181.0382      0.00000
   1407     181.0494      0.00000
   1408     181.0543      0.00000
   1409     181.0640      0.00000
   1410     181.0640      0.00000
   1411     181.0736      0.00000
   1412     181.1464      0.00000
   1413     181.1464      0.00000
   1414     181.1469      0.00000
   1415     181.1502      0.00000
   1416     181.1521      0.00000
   1417     181.1553      0.00000
   1418     181.1553      0.00000
   1419     181.1587      0.00000
   1420     181.6996      0.00000
   1421     181.9327      0.00000
   1422     181.9327      0.00000
   1423     182.4958      0.00000
   1424     183.0390      0.00000
   1425     183.0390      0.00000
   1426     183.0491      0.00000
   1427     183.1500      0.00000
   1428     183.1585      0.00000
   1429     183.3209      0.00000
   1430     183.3641      0.00000
   1431     183.3974      0.00000
   1432     183.4398      0.00000
   1433     183.4398      0.00000
   1434     183.5112      0.00000
   1435     183.5649      0.00000
   1436     183.5649      0.00000
   1437     183.5950      0.00000
   1438     183.6538      0.00000
   1439     183.6789      0.00000
   1440     183.6789      0.00000
   1441     183.8026      0.00000
   1442     183.8172      0.00000
   1443     183.9623      0.00000
   1444     184.0008      0.00000
   1445     184.0008      0.00000
   1446     184.0264      0.00000
   1447     184.0277      0.00000
   1448     184.0277      0.00000
   1449     184.0598      0.00000
   1450     184.0724      0.00000
   1451     184.0724      0.00000
   1452     184.1043      0.00000
   1453     184.1607      0.00000
   1454     184.1628      0.00000
   1455     184.1628      0.00000
   1456     184.1684      0.00000
   1457     184.2264      0.00000
   1458     184.2588      0.00000
   1459     184.2588      0.00000
   1460     184.2689      0.00000
   1461     184.2689      0.00000
   1462     184.2885      0.00000
   1463     184.3360      0.00000
   1464     184.3427      0.00000
   1465     184.3427      0.00000
   1466     184.3636      0.00000
   1467     184.3636      0.00000
   1468     184.3709      0.00000
   1469     184.3821      0.00000
   1470     184.3862      0.00000
   1471     184.3876      0.00000
   1472     184.3876      0.00000
   1473     184.3924      0.00000
   1474     184.7596      0.00000
   1475     184.7744      0.00000
   1476     184.7838      0.00000
   1477     184.7838      0.00000
   1478     184.7885      0.00000
   1479     184.7885      0.00000
   1480     184.7943      0.00000
   1481     184.8066      0.00000
[...]
  170          rpro_isp                              5.460467                          3   4
  171            fftwav_mpi                            5.360698                     4965   5
  172              fftwav                                5.359308                   4965   6
  173                fft3d                                 4.901592                 4965   7
  174            rpromu                                0.093938                     1242   5
  175              rpromu_gemm                           0.033430                   2484   6
  176          m_sumb_d                              0.000009                          1   4
  177        fordep                                0.001591                            1   3
  178          setdij_                               0.001586                          6   4
  179            m_sumb_d                              0.000116                        6   5
  180        setdij_                               0.004918                           20   3
  181          m_sumb_d                              0.000212                         20   4
  182        set_dd_magatom                        0.000000                            1   3
  183        set_dd_paw                            0.000833                            1   3
  184          m_sumb_d                              0.000827                          7   4
  185        strkin                                0.033231                            1   3
  186          m_sumb_d                              0.000031                          1   4
  187        strelo                                0.007178                            1   3
  188          m_sumb_d                              0.000006                          2   4
  189        strnlr                               16.471580                            1   3
  190          rspher_all                            0.002801                          9   4
  191          phaser                                0.000001                          9   4
  192          rpro_isp                             16.464845                          9   4
  193            fftwav_mpi                           16.164632                    14895   5
  194              fftwav                               16.160522                  14895   6
  195                fft3d                                14.817261                14895   7
  196            rpromu                                0.282534                     3726   5
  197              rpromu_gemm                           0.099383                   7452   6
  198          m_sumb_d                              0.000688                          1   4
  199        fft3d_mpi                             0.047884                           11   3
  200          fftbrc_mpi                            0.045760                         11   4
  201            fftbas_plan_mpi                       0.045758                       11   5
  202              dfftw_execute                         0.019570                     33   6
  203              map_forward                           0.010708                     10   6
  204                map_gather                            0.004812                    5   7
  205                m_alltoallv_z                         0.002735                    5   7
  206                map_scatter                           0.003140                    5   7
  207              map_backward                          0.014841                     12   6
  208                map_gather                            0.004066                    6   7
  209                m_alltoallv_z                         0.003445                    6   7
  210                map_scatter                           0.007303                    6   7
  211        ggaall_grid                           0.022331                            1   3
  212        m_sumb_d                              0.000041                            5   3
  213        forhar                                0.009970                            2   3
  214          m_sumb_d                              0.000076                          2   4
  215        strehar                               0.005660                            1   3
  216          m_sumb_d                              0.000012                          1   4
  217        chggra                                0.022362                            1   3
  218          fft3d_mpi                             0.012776                          3   4
  219            fftbrc_mpi                            0.012361                        3   5
  220              fftbas_plan_mpi                       0.012361                      3   6
  221                dfftw_execute                         0.005316                    9   7
  222                map_backward                          0.002469                    2   7
  223                  map_gather                            0.000666                  1   8
  224                  m_alltoallv_z                         0.000574                  1   8
  225                  map_scatter                           0.001222                  1   8
  226                map_forward                           0.004395                    4   7
  227                  map_gather                            0.002109                  2   8
  228                  m_alltoallv_z                         0.001025                  2   8
  229                  map_scatter                           0.001252                  2   8
  230          m_sumb_d                              0.000008                          2   4
  231          pothar                                0.001191                          1   4
  232            m_sumb_d                              0.000006                        1   5
  233        brmix                                 0.003053                            1   3
  234          m_sumb_d                              0.000039                          6   4
  235          brpre                                 0.000032                          1   4
  236          setg0                                 0.001287                          2   4
  237          broyd                                 0.000038                          1   4
  238            m_sumb_d                              0.000004                        2   5
  239            brsav                                 0.000020                        5   5
  240            brget                                 0.000003                        3   5
  241        m_bcast_d                             0.000006                            2   3
  242      potlok                                0.105551                              1   2
  243        fft3d_mpi                             0.053324                           13   3
  244          fftbrc_mpi                            0.050544                         13   4
  245            fftbas_plan_mpi                       0.050542                       13   5
  246              dfftw_execute                         0.021781                     39   6
  247              map_forward                           0.013124                     14   6
  248                map_gather                            0.006056                    8   7
  249                m_alltoallv_z                         0.003188                    8   7
  250                map_scatter                           0.003851                    8   7
  251              map_backward                          0.014833                     12   6
  252                map_gather                            0.004018                    6   7
  253                m_alltoallv_z                         0.003472                    6   7
  254                map_scatter                           0.007320                    6   7
  255        ggaall_grid                           0.022334                            1   3
  256        m_sumb_d                              0.000063                            5   3
  257        pothar                                0.001314                            1   3
  258          m_sumb_d                              0.000065                          1   4
  259        m_bcast_d                             0.000346                            1   3
  260      potlok_metagga                        0.000000                              1   2
  261      set_dd_magatom                        0.000000                              1   2
  262      set_dd_paw                            0.000843                              1   2
  263        m_sumb_d                              0.000837                            7   3
  264      densta                                0.000276                              1   2
  265        m_sumb_d                              0.000060                            6   3
 
 Flat profile
 ============
 
             routine name                   CPU           calls
 ---------------------------------------------------------------
 bg_pdssyex_zheevx                      34.397338           1
 fft3d                                  24.723248       24827
 orth1_nosubindex                        6.498457         414
 total_time                              4.940088           1
 lincom_slice                            4.893539          52
 bg_ppotrf_trtri                         3.368357           1
 fftwav                                  2.140200       23172
 m_sumb_d                                1.264026        7395
 vhamil                                  0.661933        1655
 m_alltoall_d                            0.515001       18205
 m_bcast_z                               0.329330        6621
 rpromu                                  0.265367        5382
 recon_slice                             0.226125          52
 rpromu_gemm                             0.144013       10764
 orth1_distri                            0.108262         414
 dfftw_execute                           0.078584         141
 distri_slice                            0.075448         414
 ggaall_grid                             0.067070           3
 lincom_distri                           0.066389           2
 potlok                                  0.057815           2
 eddiag                                  0.042891           1
 map_scatter                             0.039745          51
 map_gather                              0.034381          51
 strkin                                  0.033200           1
 rpro_isp                                0.025655          13
 m_alltoallv_z                           0.024384          51
 force_and_stress                        0.023940           1
 kinhamil                                0.019586        1655
 fftext_mpi                              0.018887        1655
 redis_pw                                0.017752         417
 fft3d_mpi                               0.010943        1702
 orthch                                  0.010838           1
 forhar                                  0.009894           2
 elmin                                   0.009183           1
 chggra                                  0.008387           1
 setdij_                                 0.007369          29
 strelo                                  0.007172           1
 fftwav_mpi                              0.006586       23172
 strehar                                 0.005648           1
 forloc                                  0.005120           1
 augmentation_charge                     0.004421           2
 rspher_all                              0.004165          14
 pothar                                  0.003665           3
 strnlr                                  0.003245           1
 fftbas_plan_mpi                         0.002988          47
 hamilt_local                            0.002009        1655
 stufak                                  0.001749           1
 brmix                                   0.001656           1
 redis_proj                              0.001425           6
 setg0                                   0.001287           2
 fornlr                                  0.001112           1
 soft_charge                             0.001096           2
 set_charge                              0.001030           2
 m_bcast_d                               0.000939           8
 m_sum_g                                 0.000495         466
 densta                                  0.000433           2
 overl                                   0.000423           2
 depsum                                  0.000415           2
 fewald                                  0.000306           1
 pw_charge                               0.000298           2
 brgrid                                  0.000235           1
 fft_gq                                  0.000116           2
 map_forward                             0.000099          48
 map_backward                            0.000093          46
 crpa_reader                             0.000039           1
 rsp                                     0.000035           1
 brpre                                   0.000032           1
 set_dd_paw                              0.000022           3
 brsav                                   0.000020           5
 fftbrc_mpi                              0.000013          47
 broyd                                   0.000011           1
 fordep                                  0.000005           1
 rcp                                     0.000005           1
 brget                                   0.000003           3
 phaser                                  0.000002          13
 proall                                  0.000002           1
 choleski                                0.000001           1
 set_dd_magatom                          0.000001           3
 shift_bands_between_low_high            0.000001           1
 vectorpot                               0.000001           2
 potlok_metagga                          0.000001           2
 FERMAT_RAZOR                            0.000000           4
 rotate_active_occupied_orbital          0.000000           1
 redis_pw_over_bands                     0.000000           1
 ---------------------------------------------------------------
  summed up times    85.216048002243042     
 
 Accumulative profile
 ====================
 
             routine name                   CPU           calls
 ---------------------------------------------------------------
 total_time                             85.216048           1
 elmin                                  46.449430           1
 eddiag                                 46.331673           1
 bg_pdssyex_zheevx                      34.397338           1
 fftwav_mpi                             25.119704       23172
 fftwav                                 25.113119       23172
 fft3d                                  24.723248       24827
 rpro_isp                               23.760978          13
 force_and_stress                       22.133190           1
 strnlr                                 16.471580           1
 orthch                                  9.165345           1
 orth1_distri                            7.201120         414
 orth1_nosubindex                        6.498457         414
 lincom_distri                           5.696054           2
 fornlr                                  5.462537           1
 lincom_slice                            4.893539          52
 choleski                                3.368358           1
 bg_ppotrf_trtri                         3.368357           1
 hamilt_local                            2.454062        1655
 fft3d_mpi                               1.941559        1702
 proall                                  1.835668           1
 kinhamil                                1.790120        1655
 fftext_mpi                              1.770534        1655
 m_sumb_d                                1.264026        7395
 m_sum_g                                 1.028954         466
 vhamil                                  0.661933        1655
 m_alltoall_d                            0.515001       18205
 redis_pw                                0.513703         417
 rpromu                                  0.409379        5382
 m_bcast_z                               0.329330        6621
 recon_slice                             0.226125          52
 potlok                                  0.212503           2
 fftbrc_mpi                              0.180287          47
 fftbas_plan_mpi                         0.180274          47
 rpromu_gemm                             0.144013       10764
 dfftw_execute                           0.078584         141
 distri_slice                            0.075448         414
 ggaall_grid                             0.067070           3
 map_backward                            0.052345          46
 map_forward                             0.046356          48
 map_scatter                             0.039745          51
 map_gather                              0.034381          51
 strkin                                  0.033231           1
 m_alltoallv_z                           0.024384          51
 chggra                                  0.022362           1
 set_charge                              0.021959           2
 redis_proj                              0.020475           6
 augmentation_charge                     0.013613           2
 forhar                                  0.009970           2
 setdij_                                 0.007815          29
 strelo                                  0.007178           1
 soft_charge                             0.006880           2
 strehar                                 0.005660           1
 forloc                                  0.005129           1
 rspher_all                              0.004165          14
 pothar                                  0.003808           3
 brmix                                   0.003053           1
 set_dd_paw                              0.002532           3
 fft_gq                                  0.002375           2
 stufak                                  0.001749           1
 fordep                                  0.001591           1
 setg0                                   0.001287           2
 m_bcast_d                               0.000939           8
 densta                                  0.000557           2
 depsum                                  0.000436           2
 overl                                   0.000423           2
 fewald                                  0.000406           1
 pw_charge                               0.000298           2
 brgrid                                  0.000235           1
 crpa_reader                             0.000039           1
 broyd                                   0.000038           1
 rsp                                     0.000035           1
 brpre                                   0.000032           1
 brsav                                   0.000020           5
 rcp                                     0.000005           1
 brget                                   0.000003           3
 phaser                                  0.000002          13
 set_dd_magatom                          0.000001           3
 shift_bands_between_low_high            0.000001           1
 vectorpot                               0.000001           2
 potlok_metagga                          0.000001           2
 FERMAT_RAZOR                            0.000000           4
 rotate_active_occupied_orbital          0.000000           1
 redis_pw_over_bands                     0.000000           1
 ---------------------------------------------------------------
 
Profiling took   0.016691  0.012116  0.004158  0.004116 seconds
Profiling took   0.017395 seconds
