 vasp.6.3.0 20Jan22 (build Dec  8 2022 17:40:58) gamma-only                      
 executed on             LinuxGNU date 2024.05.24  14:50:18
 running on    4 total cores
 distrk:  each k-point on    4 cores,    1 groups
 distr:  one band on NCORE=   1 cores,    4 groups


--------------------------------------------------------------------------------------------------------


 INCAR:
   ENCUT = 500
   EDIFF = 1E-6
   ISYM = -1
   PREC = Accurate
   LREAL = .TRUE.

 POTCAR:    PAW_PBE Li_GW 11May2007               
 POTCAR:    PAW_PBE H_GW 21Apr2008                
 POTCAR:    PAW_PBE Li_GW 11May2007               
   SHA256 =  c4b788acc6a1447003eb32b05f4862c502ff3cce9bf6cb6ad4cc41d5ac668445 Li_GW/POTCAR          
   COPYR  = (c) Copyright 11May2007 Georg Kresse                                                    
   COPYR  = This file is part of the software VASP. Any use, copying, and all other rights are regul
   COPYR  = If you do not have a valid VASP license, you may not use, copy or distribute this file. 
   VRHFIN =Li: s1p0                                                                                 
   LEXCH  = PE                                                                                      
   EATOM  =     5.3001 eV,    0.3895 Ry                                                             
                                                                                                    
   TITEL  = PAW_PBE Li_GW 11May2007                                                                 
   LULTRA =        F    use ultrasoft PP ?                                                          
   IUNSCR =        1    unscreen: 0-lin 1-nonlin 2-no                                               
   RPACOR =    1.500    partial core radius                                                         
   POMASS =    7.010; ZVAL   =    1.000    mass and valenz                                          
   RCORE  =    2.100    outmost cutoff radius                                                       
   RWIGS  =    2.600; RWIGS  =    1.376    wigner-seitz radius (au A)                               
   ENMAX  =  112.104; ENMIN  =   84.078 eV                                                          
   ICORE  =        2    local potential                                                             
   LCOR   =        T    correct aug charges                                                         
   LPAW   =        T    paw PP                                                                      
   EAUG   =  291.793                                                                                
   DEXC   =    0.000                                                                                
   RMAX   =    2.149    core radius for proj-oper                                                   
   RAUG   =    1.300    factor for augmentation sphere                                              
   RDEP   =    2.232    radius for radial grids                                                     
   RDEPT  =    1.854    core radius for aug-charge                                                  
                                                                                                    
   Atomic configuration                                                                             
    4 entries                                                                                       
     n  l   j            E        occ.                                                              
     1  0  0.50       -51.8549   2.0000                                                             
     2  0  0.50        -2.8742   1.0000                                                             
     2  1  0.50        -2.8708   0.0000                                                             
     3  2  1.50        -1.3606   0.0000                                                             
   Description                                                                                      
     l       E           TYP  RCUT    TYP  RCUT                                                     
     0     -2.8742051     23  2.100                                                                 
     0     54.4233040     23  2.100                                                                 
     1     -2.8708293     23  2.050                                                                 
     2     -1.3605826     15  2.050                                                                 
  local pseudopotential read in
  partial core-charges read in
  partial kinetic energy density read in
  kinetic energy density of atom read in
  atomic valenz-charges read in
  non local Contribution for L=           0  read in
    real space projection operators read in
  non local Contribution for L=           0  read in
    real space projection operators read in
  non local Contribution for L=           1  read in
    real space projection operators read in
    PAW grid and wavefunctions read in

   number of l-projection  operators is LMAX  =           3
   number of lm-projection operators is LMMAX =           5

 POTCAR:    PAW_PBE H_GW 21Apr2008                
   SHA256 =  cecc88617a3d1ece9865646f5d462fc0f44fd1f68d6f2eb08f18a2e421902afb H_GW/POTCAR           
   COPYR  = (c) Copyright 21Apr2008 Georg Kresse                                                    
   COPYR  = This file is part of the software VASP. Any use, copying, and all other rights are regul
   COPYR  = If you do not have a valid VASP license, you may not use, copy or distribute this file. 
   VRHFIN =H: ultrasoft test                                                                        
   LEXCH  = PE                                                                                      
   EATOM  =    12.4884 eV,    0.9179 Ry                                                             
                                                                                                    
   TITEL  = PAW_PBE H_GW 21Apr2008                                                                  
   LULTRA =        F    use ultrasoft PP ?                                                          
   IUNSCR =        0    unscreen: 0-lin 1-nonlin 2-no                                               
   RPACOR =    0.000    partial core radius                                                         
   POMASS =    1.000; ZVAL   =    1.000    mass and valenz                                          
   RCORE  =    1.100    outmost cutoff radius                                                       
   RWIGS  =    1.100; RWIGS  =    0.582    wigner-seitz radius (au A)                               
   ENMAX  =  300.000; ENMIN  =  250.000 eV                                                          
   RCLOC  =    0.701    cutoff for local pot                                                        
   LCOR   =        T    correct aug charges                                                         
   LPAW   =        T    paw PP                                                                      
   EAUG   =  500.000                                                                                
   RMAX   =    1.123    core radius for proj-oper                                                   
   RAUG   =    1.200    factor for augmentation sphere                                              
   RDEP   =    1.112    radius for radial grids                                                     
   RDEPT  =    1.100    core radius for aug-charge                                                  
                                                                                                    
   Atomic configuration                                                                             
    3 entries                                                                                       
     n  l   j            E        occ.                                                              
     1  0  0.50        -6.4927   1.0000                                                             
     2  1  0.50        -3.4015   0.0000                                                             
     3  2  1.50        13.6058   0.0000                                                             
   Description                                                                                      
     l       E           TYP  RCUT    TYP  RCUT                                                     
     0     -6.4927495     23  0.950                                                                 
     0      6.8029130     23  0.950                                                                 
     1     -4.0817478     23  1.100                                                                 
     1    108.8466080     23  1.100                                                                 
     2     81.6349560     23  1.100                                                                 
  local pseudopotential read in
  kinetic energy density of atom read in
  atomic valenz-charges read in
  non local Contribution for L=           0  read in
    real space projection operators read in
  non local Contribution for L=           0  read in
    real space projection operators read in
  non local Contribution for L=           1  read in
    real space projection operators read in
  non local Contribution for L=           1  read in
    real space projection operators read in
  non local Contribution for L=           2  read in
    real space projection operators read in
    PAW grid and wavefunctions read in

   number of l-projection  operators is LMAX  =           5
   number of lm-projection operators is LMMAX =          13

 -----------------------------------------------------------------------------
|                                                                             |
|               ----> ADVICE to this user running VASP <----                  |
|                                                                             |
|     You have a (more or less) 'small supercell' and for smaller cells       |
|     it is recommended to use the reciprocal-space projection scheme!        |
|     The real-space optimization is not efficient for small cells and it     |
|     is also less accurate ...                                               |
|     Therefore, set LREAL=.FALSE. in the INCAR file.                         |
|                                                                             |
 -----------------------------------------------------------------------------

 -----------------------------------------------------------------------------
|                                                                             |
|           W    W    AA    RRRRR   N    N  II  N    N   GGGG   !!!           |
|           W    W   A  A   R    R  NN   N  II  NN   N  G    G  !!!           |
|           W    W  A    A  R    R  N N  N  II  N N  N  G       !!!           |
|           W WW W  AAAAAA  RRRRR   N  N N  II  N  N N  G  GGG   !            |
|           WW  WW  A    A  R   R   N   NN  II  N   NN  G    G                |
|           W    W  A    A  R    R  N    N  II  N    N   GGGG   !!!           |
|                                                                             |
|     The real-space projection scheme for the treatment of the non-local     |
|     pseudopotentials has been switched on but on file POTCAR I have not     |
|     found any entries, signalling me that you have never performed a        |
|     real-space optimization of all non-local projectors! BE WARNED that     |
|     a calculation using the real-space projection scheme together with      |
|     non-local projectors which were not real-space optimized (according     |
|     to the plane-wave cutoff used in this calculation) might give more      |
|     or less inaccurate results. I hope you know what you are doing.         |
|                                                                             |
 -----------------------------------------------------------------------------

  PAW_PBE Li_GW 11May2007               :
 energy of atom  1       EATOM=   -5.3001
 kinetic energy error for atom=    0.0000 (will be added to EATOM!!)
  PAW_PBE H_GW 21Apr2008                :
 energy of atom  2       EATOM=  -12.4884
 kinetic energy error for atom=    0.0109 (will be added to EATOM!!)


 POSCAR: LiH
  positions in cartesian coordinates
  No initial velocities read in
 exchange correlation table for  LEXCH =        8
   RHO(1)=    0.500       N(1)  =     2000
   RHO(2)=  100.500       N(2)  =     4000



--------------------------------------------------------------------------------------------------------


 ion  position               nearest neighbor table
   1  0.000  0.000  0.000-   2 1.62
   2  0.000  0.000  0.255-   1 1.62


IMPORTANT INFORMATION: All symmetrisations will be switched off!
NOSYMM: (Re-)initialisation of all symmetry stuff for point group C_1.


----------------------------------------------------------------------------------------

                                     Primitive cell                                     

  volume of cell :     256.0479

  direct lattice vectors                    reciprocal lattice vectors
     6.350000000  0.000000000  0.000000000     0.157480315  0.000000000  0.000000000
     0.000000000  6.350000000  0.000000000     0.000000000  0.157480315  0.000000000
     0.000000000  0.000000000  6.350000000     0.000000000  0.000000000  0.157480315

  length of vectors
     6.350000000  6.350000000  6.350000000     0.157480315  0.157480315  0.157480315

  position of ions in fractional coordinates (direct lattice)
     0.000000000  0.000000000  0.000000000
     0.000000000  0.000000000  0.255285402

  ion indices of the primitive-cell ions
   primitive index   ion index
                 1           1
                 2           2

----------------------------------------------------------------------------------------



 KPOINTS: Automatically generated mesh            

Automatic generation of k-mesh.
 Grid dimensions read from file:
 generate k-points for:    1    1    1

 Generating k-lattice:

  Cartesian coordinates                     Fractional coordinates (reciprocal lattice)
     0.157480315  0.000000000  0.000000000     1.000000000  0.000000000  0.000000000
     0.000000000  0.157480315  0.000000000     0.000000000  1.000000000  0.000000000
     0.000000000  0.000000000  0.157480315     0.000000000  0.000000000  1.000000000

  Length of vectors
     0.157480315  0.157480315  0.157480315

  Shift w.r.t. Gamma in fractional coordinates (k-lattice)
     0.000000000  0.000000000  0.000000000

 
 Subroutine IBZKPT returns following result:
 ===========================================
 
 Found      1 irreducible k-points:
 
 Following reciprocal coordinates:
            Coordinates               Weight
  0.000000  0.000000  0.000000      1.000000
 
 Following cartesian coordinates:
            Coordinates               Weight
  0.000000  0.000000  0.000000      1.000000
 


--------------------------------------------------------------------------------------------------------




 Dimension of arrays:
   k-points           NKPTS =      1   k-points in BZ     NKDIM =      1   number of bands    NBANDS=      8
   number of dos      NEDOS =    301   number of ions     NIONS =      2
   non local maximal  LDIM  =      5   non local SUM 2l+1 LMDIM =     13
   total plane-waves  NPLWV = 110592
   max r-space proj   IRMAX =   2710   max aug-charges    IRDMAX=  16944
   dimension x,y,z NGX =    48 NGY =   48 NGZ =   48
   dimension x,y,z NGXF=    96 NGYF=   96 NGZF=   96
   support grid    NGXF=    96 NGYF=   96 NGZF=   96
   ions per type =               1   1
   NGX,Y,Z   is equivalent  to a cutoff of  12.57, 12.57, 12.57 a.u.
   NGXF,Y,Z  is equivalent  to a cutoff of  25.13, 25.13, 25.13 a.u.

 SYSTEM =  unknown system                          
 POSCAR =  LiH                                     

 Startparameter for this run:
   NWRITE =      2    write-flag & timer
   PREC   = accura    normal or accurate (medium, high low for compatibility)
   ISTART =      0    job   : 0-new  1-cont  2-samecut
   ICHARG =      2    charge: 1-file 2-atom 10-const
   ISPIN  =      1    spin polarized calculation?
   LNONCOLLINEAR =      F non collinear calculations
   LSORBIT =      F    spin-orbit coupling
   INIWAV =      1    electr: 0-lowe 1-rand  2-diag
   LASPH  =      F    aspherical Exc in radial PAW
 Electronic Relaxation 1
   ENCUT  =  500.0 eV  36.75 Ry    6.06 a.u.  11.58 11.58 11.58*2*pi/ulx,y,z
   ENINI  =  500.0     initial cutoff
   ENAUG  =  500.0 eV  augmentation charge cutoff
   NELM   =     60;   NELMIN=  2; NELMDL= -5     # of ELM steps 
   EDIFF  = 0.1E-05   stopping-criterion for ELM
   LREAL  =      T    real-space projection
   NLSPLINE    = F    spline interpolate recip. space projectors
   LCOMPAT=      F    compatible to vasp.4.4
   GGA_COMPAT  = T    GGA compatible to vasp.4.4-vasp.4.6
   LMAXPAW     = -100 max onsite density
   LMAXMIX     =    2 max onsite mixed and CHGCAR
   VOSKOWN=      0    Vosko Wilk Nusair interpolation
   ROPT   =    0.00000   0.00000
 Ionic relaxation
   EDIFFG = 0.1E-04   stopping-criterion for IOM
   NSW    =      0    number of steps for IOM
   NBLOCK =      1;   KBLOCK =      1    inner block; outer block 
   IBRION =     -1    ionic relax: 0-MD 1-quasi-New 2-CG
   NFREE  =      0    steps in history (QN), initial steepest desc. (CG)
   ISIF   =      2    stress and relaxation
   IWAVPR =     10    prediction:  0-non 1-charg 2-wave 3-comb
   ISYM   =     -1    0-nonsym 1-usesym 2-fastsym
   LCORR  =      T    Harris-Foulkes like correction to forces

   POTIM  = 0.5000    time-step for ionic-motion
   TEIN   =    0.0    initial temperature
   TEBEG  =    0.0;   TEEND  =   0.0 temperature during run
   SMASS  =  -3.00    Nose mass-parameter (am)
   estimated Nose-frequenzy (Omega)   =  0.10E-29 period in steps = 0.13E+47 mass=  -0.921E-27a.u.
   SCALEE = 1.0000    scale energy and forces
   NPACO  =    256;   APACO  = 10.0  distance and # of slots for P.C.
   PSTRESS=    0.0 pullay stress

  Mass of Ions in am
   POMASS =   7.01  1.00
  Ionic Valenz
   ZVAL   =   1.00  1.00
  Atomic Wigner-Seitz radii
   RWIGS  =  -1.00 -1.00
  virtual crystal weights 
   VCA    =   1.00  1.00
   NELECT =       2.0000    total number of electrons
   NUPDOWN=      -1.0000    fix difference up-down

 DOS related values:
   EMIN   =  10.00;   EMAX   =-10.00  energy-range for DOS
   EFERMI =   0.00
   ISMEAR =     1;   SIGMA  =   0.20  broadening in eV -4-tet -1-fermi 0-gaus

 Electronic relaxation 2 (details)
   IALGO  =     38    algorithm
   LDIAG  =      T    sub-space diagonalisation (order eigenvalues)
   LSUBROT=      F    optimize rotation matrix (better conditioning)
   TURBO    =      0    0=normal 1=particle mesh
   IRESTART =      0    0=no restart 2=restart with 2 vectors
   NREBOOT  =      0    no. of reboots
   NMIN     =      0    reboot dimension
   EREF     =   0.00    reference energy to select bands
   IMIX   =      4    mixing-type and parameters
     AMIX     =   0.40;   BMIX     =  1.00
     AMIX_MAG =   1.60;   BMIX_MAG =  1.00
     AMIN     =   0.10
     WC   =   100.;   INIMIX=   1;  MIXPRE=   1;  MAXMIX= -45

 Intra band minimization:
   WEIMIN = 0.0000     energy-eigenvalue tresh-hold
   EBREAK =  0.31E-07  absolut break condition
   DEPER  =   0.30     relativ break condition  

   TIME   =   0.40     timestep for ELM

  volume/ion in A,a.u.               =     128.02       863.95
  Fermi-wavevector in a.u.,A,eV,Ry     =   0.324821  0.613823  1.435535  0.105509
  Thomas-Fermi vector in A             =   1.215279

 Write flags
   LWAVE        =      T    write WAVECAR
   LDOWNSAMPLE  =      F    k-point downsampling of WAVECAR
   LCHARG       =      T    write CHGCAR
   LVTOT        =      F    write LOCPOT, total local potential
   LVHAR        =      F    write LOCPOT, Hartree potential only
   LELF         =      F    write electronic localiz. function (ELF)
   LORBIT       =      0    0 simple, 1 ext, 2 COOP (PROOUT), +10 PAW based schemes


 Dipole corrections
   LMONO  =      F    monopole corrections only (constant potential shift)
   LDIPOL =      F    correct potential (dipole corrections)
   IDIPOL =      0    1-x, 2-y, 3-z, 4-all directions 
   EPSILON=  1.0000000 bulk dielectric constant

 Exchange correlation treatment:
   GGA     =    --    GGA type
   LEXCH   =     8    internal setting for exchange type
   LIBXC   =     F    Libxc                    
   VOSKOWN =     0    Vosko Wilk Nusair interpolation
   LHFCALC =     F    Hartree Fock is set to
   LHFONE  =     F    Hartree Fock one center treatment
   AEXX    =    0.0000 exact exchange contribution

 Linear response parameters
   LEPSILON=     F    determine dielectric tensor
   LRPA    =     F    only Hartree local field effects (RPA)
   LNABLA  =     F    use nabla operator in PAW spheres
   LVEL    =     F    velocity operator in full k-point grid
   CSHIFT  =0.1000    complex shift for real part using Kramers Kronig
   OMEGAMAX=  -1.0    maximum frequency
   DEG_THRESHOLD= 0.2000000E-02 threshold for treating states as degnerate
   RTIME   =   -0.100 relaxation time in fs
  (WPLASMAI=    0.000 imaginary part of plasma frequency in eV, 0.658/RTIME)
   DFIELD  = 0.0000000 0.0000000 0.0000000 field for delta impulse in time

  Optional k-point grid parameters
   LKPOINTS_OPT  =     F    use optional k-point grid
   KPOINTS_OPT_MODE=     1    mode for optional k-point grid

 Orbital magnetization related:
   ORBITALMAG=     F  switch on orbital magnetization
   LCHIMAG   =     F  perturbation theory with respect to B field
   DQ        =  0.001000  dq finite difference perturbation B field
   LLRAUG    =     F  two centre corrections for induced B field



--------------------------------------------------------------------------------------------------------


 Static calculation
 charge density and potential will be updated during run
 non-spin polarized calculation
 Variant of blocked Davidson
 Davidson routine will perform the subspace rotation
 perform sub-space diagonalisation
    after iterative eigenvector-optimisation
 modified Broyden-mixing scheme, WC =      100.0
 initial mixing is a Kerker type mixing with AMIX =  0.4000 and BMIX =      1.0000
 Hartree-type preconditioning will be used
 using additional bands            7
 real space projection scheme for non local part
 use partial core corrections
 calculate Harris-corrections to forces   (improved forces if not selfconsistent)
 use gradient corrections 
 use of overlap-Matrix (Vanderbilt PP)
 Methfessel and Paxton  Order N= 1 SIGMA  =   0.20


--------------------------------------------------------------------------------------------------------


  energy-cutoff  :      500.00
  volume of cell :      256.05
      direct lattice vectors                 reciprocal lattice vectors
     6.350000000  0.000000000  0.000000000     0.157480315  0.000000000  0.000000000
     0.000000000  6.350000000  0.000000000     0.000000000  0.157480315  0.000000000
     0.000000000  0.000000000  6.350000000     0.000000000  0.000000000  0.157480315

  length of vectors
     6.350000000  6.350000000  6.350000000     0.157480315  0.157480315  0.157480315



 k-points in units of 2pi/SCALE and weight: Automatically generated mesh            
   0.00000000  0.00000000  0.00000000       1.000

 k-points in reciprocal lattice and weights: Automatically generated mesh            
   0.00000000  0.00000000  0.00000000       1.000

 position of ions in fractional coordinates (direct lattice) 
   0.00000000  0.00000000  0.00000000
   0.00000000  0.00000000  0.25528540

 position of ions in cartesian coordinates  (Angst):
   0.00000000  0.00000000  0.00000000
   0.00000000  0.00000000  1.62106230



--------------------------------------------------------------------------------------------------------


 use serial FFT for orbitals x direction half grid
 k-point   1 :   0.0000 0.0000 0.0000  plane waves:    3310

 maximum and minimum number of plane-waves per node :      3310     3310

 maximum number of plane-waves:      3310
 maximum index in each direction: 
   IXMAX=   11   IYMAX=   11   IZMAX=   11
   IXMIN=    0   IYMIN=  -11   IZMIN=  -11


 serial   3D FFT for wavefunctions
 parallel 3D FFT for charge:
    minimum data exchange during FFTs selected (reduces bandwidth)


 total amount of memory used by VASP MPI-rank0    55328. kBytes
=======================================================================

   base      :      30000. kBytes
   nonlr-proj:        154. kBytes
   fftplans  :       8029. kBytes
   grid      :      17031. kBytes
   one-center:          8. kBytes
   wavefun   :        106. kBytes

     INWAV:  cpu time      0.0000: real time      0.0001
 Broyden mixing: mesh for mixing (old mesh)
   NGX = 23   NGY = 23   NGZ = 23
  (NGX  = 96   NGY  = 96   NGZ  = 96)
  gives a total of  12167 points

 initial charge density was supplied:
 charge density of overlapping atoms calculated
 number of electron       2.0000000 magnetization 
 keeping initial charge density in first step


--------------------------------------------------------------------------------------------------------


 Maximum index for non-local projection operator         2553
 Maximum index for augmentation-charges         4031 (set IRDMAX)


--------------------------------------------------------------------------------------------------------


 First call to EWALD:  gamma=   0.279
 Maximum number of real-space cells 3x 3x 3
 Maximum number of reciprocal cells 3x 3x 3

    FEWALD:  cpu time      0.0004: real time      0.0004


--------------------------------------- Iteration      1(   1)  ---------------------------------------


    POTLOK:  cpu time      0.1085: real time      0.1093
    SETDIJ:  cpu time      0.0014: real time      0.0014
     EDDAV:  cpu time      0.0274: real time      0.0274
       DOS:  cpu time      0.0001: real time      0.0002
    --------------------------------------------
      LOOP:  cpu time      0.1374: real time      0.1383

 eigenvalue-minimisations  :    16
 total energy-change (2. order) :-0.1051495E+01  (-0.3255814E+02)
 number of electron       2.0000000 magnetization 
 augmentation part        2.0000000 magnetization 

 Free energy of the ion-electron system (eV)
  ---------------------------------------------------
  alpha Z        PSCENC =         0.00733884
  Ewald energy   TEWEN  =        -3.64529433
  -Hartree energ DENC   =        -6.61258970
  -exchange      EXHF   =         0.00000000
  -V(xc)+E(xc)   XCENC  =        -2.75245573
  PAW double counting   =         9.79557496       -4.24713221
  entropy T*S    EENTRO =         0.01159581
  eigenvalues    EBANDS =       -11.38615683
  atomic energy  EATOM  =        17.77762371
  Solvation  Ediel_sol  =         0.00000000
  ---------------------------------------------------
  free energy    TOTEN  =        -1.05149547 eV

  energy without entropy =       -1.06309128  energy(sigma->0) =       -1.05536074


--------------------------------------------------------------------------------------------------------




--------------------------------------- Iteration      1(   2)  ---------------------------------------


     EDDAV:  cpu time      0.0375: real time      0.0375
       DOS:  cpu time      0.0001: real time      0.0001
    --------------------------------------------
      LOOP:  cpu time      0.0376: real time      0.0376

 eigenvalue-minimisations  :    24
 total energy-change (2. order) :-0.4400990E+01  (-0.4400990E+01)
 number of electron       2.0000000 magnetization 
 augmentation part        2.0000000 magnetization 

 Free energy of the ion-electron system (eV)
  ---------------------------------------------------
  alpha Z        PSCENC =         0.00733884
  Ewald energy   TEWEN  =        -3.64529433
  -Hartree energ DENC   =        -6.61258970
  -exchange      EXHF   =         0.00000000
  -V(xc)+E(xc)   XCENC  =        -2.75245573
  PAW double counting   =         9.79557496       -4.24713221
  entropy T*S    EENTRO =         0.01159581
  eigenvalues    EBANDS =       -15.78714682
  atomic energy  EATOM  =        17.77762371
  Solvation  Ediel_sol  =         0.00000000
  ---------------------------------------------------
  free energy    TOTEN  =        -5.45248546 eV

  energy without entropy =       -5.46408127  energy(sigma->0) =       -5.45635073


--------------------------------------------------------------------------------------------------------




--------------------------------------- Iteration      1(   3)  ---------------------------------------


     EDDAV:  cpu time      0.0274: real time      0.0274
       DOS:  cpu time      0.0001: real time      0.0001
    --------------------------------------------
      LOOP:  cpu time      0.0275: real time      0.0276

 eigenvalue-minimisations  :    16
 total energy-change (2. order) :-0.1127441E+00  (-0.1127441E+00)
 number of electron       2.0000000 magnetization 
 augmentation part        2.0000000 magnetization 

 Free energy of the ion-electron system (eV)
  ---------------------------------------------------
  alpha Z        PSCENC =         0.00733884
  Ewald energy   TEWEN  =        -3.64529433
  -Hartree energ DENC   =        -6.61258970
  -exchange      EXHF   =         0.00000000
  -V(xc)+E(xc)   XCENC  =        -2.75245573
  PAW double counting   =         9.79557496       -4.24713221
  entropy T*S    EENTRO =         0.01159581
  eigenvalues    EBANDS =       -15.89989093
  atomic energy  EATOM  =        17.77762371
  Solvation  Ediel_sol  =         0.00000000
  ---------------------------------------------------
  free energy    TOTEN  =        -5.56522957 eV

  energy without entropy =       -5.57682538  energy(sigma->0) =       -5.56909484


--------------------------------------------------------------------------------------------------------




--------------------------------------- Iteration      1(   4)  ---------------------------------------


     EDDAV:  cpu time      0.0373: real time      0.0374
       DOS:  cpu time      0.0001: real time      0.0001
    --------------------------------------------
      LOOP:  cpu time      0.0374: real time      0.0375

 eigenvalue-minimisations  :    24
 total energy-change (2. order) :-0.8270436E-03  (-0.8270437E-03)
 number of electron       2.0000000 magnetization 
 augmentation part        2.0000000 magnetization 

 Free energy of the ion-electron system (eV)
  ---------------------------------------------------
  alpha Z        PSCENC =         0.00733884
  Ewald energy   TEWEN  =        -3.64529433
  -Hartree energ DENC   =        -6.61258970
  -exchange      EXHF   =         0.00000000
  -V(xc)+E(xc)   XCENC  =        -2.75245573
  PAW double counting   =         9.79557496       -4.24713221
  entropy T*S    EENTRO =         0.01159581
  eigenvalues    EBANDS =       -15.90071797
  atomic energy  EATOM  =        17.77762371
  Solvation  Ediel_sol  =         0.00000000
  ---------------------------------------------------
  free energy    TOTEN  =        -5.56605661 eV

  energy without entropy =       -5.57765242  energy(sigma->0) =       -5.56992188


--------------------------------------------------------------------------------------------------------




--------------------------------------- Iteration      1(   5)  ---------------------------------------


     EDDAV:  cpu time      0.0374: real time      0.0374
       DOS:  cpu time      0.0001: real time      0.0002
    CHARGE:  cpu time      0.0112: real time      0.0112
    MIXING:  cpu time      0.0030: real time      0.0030
    --------------------------------------------
      LOOP:  cpu time      0.0517: real time      0.0518

 eigenvalue-minimisations  :    24
 total energy-change (2. order) :-0.1893981E-06  (-0.1900841E-06)
 number of electron       2.0000000 magnetization 
 augmentation part        0.0195167 magnetization 

 Broyden mixing:
  rms(total) = 0.46042E+00    rms(broyden)= 0.46041E+00
  rms(prec ) = 0.10130E+01
  weight for this iteration     100.00

 Free energy of the ion-electron system (eV)
  ---------------------------------------------------
  alpha Z        PSCENC =         0.00733884
  Ewald energy   TEWEN  =        -3.64529433
  -Hartree energ DENC   =        -6.61258970
  -exchange      EXHF   =         0.00000000
  -V(xc)+E(xc)   XCENC  =        -2.75245573
  PAW double counting   =         9.79557496       -4.24713221
  entropy T*S    EENTRO =         0.01159581
  eigenvalues    EBANDS =       -15.90071816
  atomic energy  EATOM  =        17.77762371
  Solvation  Ediel_sol  =         0.00000000
  ---------------------------------------------------
  free energy    TOTEN  =        -5.56605680 eV

  energy without entropy =       -5.57765261  energy(sigma->0) =       -5.56992207


--------------------------------------------------------------------------------------------------------




--------------------------------------- Iteration      1(   6)  ---------------------------------------


    POTLOK:  cpu time      0.1082: real time      0.1082
    SETDIJ:  cpu time      0.0013: real time      0.0013
     EDDAV:  cpu time      0.0273: real time      0.0273
       DOS:  cpu time      0.0001: real time      0.0002
    CHARGE:  cpu time      0.0112: real time      0.0112
    MIXING:  cpu time      0.0031: real time      0.0031
    --------------------------------------------
      LOOP:  cpu time      0.1512: real time      0.1514

 eigenvalue-minimisations  :    16
 total energy-change (2. order) : 0.1184394E+01  (-0.1319115E+00)
 number of electron       2.0000000 magnetization 
 augmentation part        0.0175018 magnetization 

 Broyden mixing:
  rms(total) = 0.20302E+00    rms(broyden)= 0.20302E+00
  rms(prec ) = 0.53509E+00
  weight for this iteration     100.00

 eigenvalues of (default mixing * dielectric matrix)
  average eigenvalue GAMMA=   1.5937
  1.5937

 Free energy of the ion-electron system (eV)
  ---------------------------------------------------
  alpha Z        PSCENC =         0.00733884
  Ewald energy   TEWEN  =        -3.64529433
  -Hartree energ DENC   =        -9.41020524
  -exchange      EXHF   =         0.00000000
  -V(xc)+E(xc)   XCENC  =        -2.28387540
  PAW double counting   =        12.99534542       -7.45584114
  entropy T*S    EENTRO =         0.01159581
  eigenvalues    EBANDS =       -12.37835034
  atomic energy  EATOM  =        17.77762371
  Solvation  Ediel_sol  =         0.00000000
  ---------------------------------------------------
  free energy    TOTEN  =        -4.38166266 eV

  energy without entropy =       -4.39325847  energy(sigma->0) =       -4.38552793


--------------------------------------------------------------------------------------------------------




--------------------------------------- Iteration      1(   7)  ---------------------------------------


    POTLOK:  cpu time      0.1079: real time      0.1080
    SETDIJ:  cpu time      0.0013: real time      0.0013
     EDDAV:  cpu time      0.0273: real time      0.0274
       DOS:  cpu time      0.0001: real time      0.0002
    CHARGE:  cpu time      0.0117: real time      0.0117
    MIXING:  cpu time      0.0031: real time      0.0031
    --------------------------------------------
      LOOP:  cpu time      0.1515: real time      0.1517

 eigenvalue-minimisations  :    16
 total energy-change (2. order) : 0.3825407E+00  (-0.1962048E+00)
 number of electron       2.0000000 magnetization 
 augmentation part        0.0147169 magnetization 

 Broyden mixing:
  rms(total) = 0.11026E+00    rms(broyden)= 0.11023E+00
  rms(prec ) = 0.19819E+00
  weight for this iteration     100.00

 eigenvalues of (default mixing * dielectric matrix)
  average eigenvalue GAMMA=   1.8846
  1.8846  1.8846

 Free energy of the ion-electron system (eV)
  ---------------------------------------------------
  alpha Z        PSCENC =         0.00733884
  Ewald energy   TEWEN  =        -3.64529433
  -Hartree energ DENC   =       -12.71421689
  -exchange      EXHF   =         0.00000000
  -V(xc)+E(xc)   XCENC  =        -1.78650928
  PAW double counting   =        17.30036312      -11.76835540
  entropy T*S    EENTRO =         0.01159581
  eigenvalues    EBANDS =        -9.18166752
  atomic energy  EATOM  =        17.77762371
  Solvation  Ediel_sol  =         0.00000000
  ---------------------------------------------------
  free energy    TOTEN  =        -3.99912193 eV

  energy without entropy =       -4.01071774  energy(sigma->0) =       -4.00298720


--------------------------------------------------------------------------------------------------------




--------------------------------------- Iteration      1(   8)  ---------------------------------------


    POTLOK:  cpu time      0.1079: real time      0.1080
    SETDIJ:  cpu time      0.0014: real time      0.0014
     EDDAV:  cpu time      0.0273: real time      0.0273
       DOS:  cpu time      0.0001: real time      0.0002
    CHARGE:  cpu time      0.0113: real time      0.0113
    MIXING:  cpu time      0.0031: real time      0.0031
    --------------------------------------------
      LOOP:  cpu time      0.1512: real time      0.1514

 eigenvalue-minimisations  :    16
 total energy-change (2. order) :-0.8842740E-01  (-0.5114688E-01)
 number of electron       2.0000000 magnetization 
 augmentation part        0.0160245 magnetization 

 Broyden mixing:
  rms(total) = 0.90004E-01    rms(broyden)= 0.90003E-01
  rms(prec ) = 0.22513E+00
  weight for this iteration     100.00

 eigenvalues of (default mixing * dielectric matrix)
  average eigenvalue GAMMA=   2.0068
  3.5130  1.2537  1.2537

 Free energy of the ion-electron system (eV)
  ---------------------------------------------------
  alpha Z        PSCENC =         0.00733884
  Ewald energy   TEWEN  =        -3.64529433
  -Hartree energ DENC   =       -11.34792905
  -exchange      EXHF   =         0.00000000
  -V(xc)+E(xc)   XCENC  =        -2.04113502
  PAW double counting   =        15.22027874       -9.68087613
  entropy T*S    EENTRO =         0.01159581
  eigenvalues    EBANDS =       -10.38915191
  atomic energy  EATOM  =        17.77762371
  Solvation  Ediel_sol  =         0.00000000
  ---------------------------------------------------
  free energy    TOTEN  =        -4.08754933 eV

  energy without entropy =       -4.09914514  energy(sigma->0) =       -4.09141460


--------------------------------------------------------------------------------------------------------




--------------------------------------- Iteration      1(   9)  ---------------------------------------


    POTLOK:  cpu time      0.1074: real time      0.1075
    SETDIJ:  cpu time      0.0013: real time      0.0013
     EDDAV:  cpu time      0.0272: real time      0.0273
       DOS:  cpu time      0.0001: real time      0.0002
    CHARGE:  cpu time      0.0118: real time      0.0118
    MIXING:  cpu time      0.0032: real time      0.0032
    --------------------------------------------
      LOOP:  cpu time      0.1510: real time      0.1512

 eigenvalue-minimisations  :    16
 total energy-change (2. order) : 0.4787569E-01  (-0.5116537E-01)
 number of electron       2.0000000 magnetization 
 augmentation part        0.0147501 magnetization 

 Broyden mixing:
  rms(total) = 0.32103E-01    rms(broyden)= 0.32094E-01
  rms(prec ) = 0.74170E-01
  weight for this iteration     100.00

 eigenvalues of (default mixing * dielectric matrix)
  average eigenvalue GAMMA=   2.1719
  4.5253  1.7076  1.7076  0.7470

 Free energy of the ion-electron system (eV)
  ---------------------------------------------------
  alpha Z        PSCENC =         0.00733884
  Ewald energy   TEWEN  =        -3.64529433
  -Hartree energ DENC   =       -13.21883718
  -exchange      EXHF   =         0.00000000
  -V(xc)+E(xc)   XCENC  =        -1.76281502
  PAW double counting   =        17.21447691      -11.67709314
  entropy T*S    EENTRO =         0.01159581
  eigenvalues    EBANDS =        -8.74666925
  atomic energy  EATOM  =        17.77762371
  Solvation  Ediel_sol  =         0.00000000
  ---------------------------------------------------
  free energy    TOTEN  =        -4.03967364 eV

  energy without entropy =       -4.05126945  energy(sigma->0) =       -4.04353891


--------------------------------------------------------------------------------------------------------




--------------------------------------- Iteration      1(  10)  ---------------------------------------


    POTLOK:  cpu time      0.1073: real time      0.1076
    SETDIJ:  cpu time      0.0013: real time      0.0013
     EDDAV:  cpu time      0.0273: real time      0.0274
       DOS:  cpu time      0.0001: real time      0.0002
    CHARGE:  cpu time      0.0117: real time      0.0117
    MIXING:  cpu time      0.0032: real time      0.0032
    --------------------------------------------
      LOOP:  cpu time      0.1509: real time      0.1514

 eigenvalue-minimisations  :    16
 total energy-change (2. order) :-0.1645822E-01  (-0.2052859E-02)
 number of electron       2.0000000 magnetization 
 augmentation part        0.0144633 magnetization 

 Broyden mixing:
  rms(total) = 0.45940E-01    rms(broyden)= 0.45939E-01
  rms(prec ) = 0.10108E+00
  weight for this iteration     100.00

 eigenvalues of (default mixing * dielectric matrix)
  average eigenvalue GAMMA=   2.0044
  4.3522  1.9378  1.9378  0.8972  0.8972

 Free energy of the ion-electron system (eV)
  ---------------------------------------------------
  alpha Z        PSCENC =         0.00733884
  Ewald energy   TEWEN  =        -3.64529433
  -Hartree energ DENC   =       -13.41120943
  -exchange      EXHF   =         0.00000000
  -V(xc)+E(xc)   XCENC  =        -1.74437275
  PAW double counting   =        16.91665389      -11.37990491
  entropy T*S    EENTRO =         0.01159581
  eigenvalues    EBANDS =        -8.58856271
  atomic energy  EATOM  =        17.77762371
  Solvation  Ediel_sol  =         0.00000000
  ---------------------------------------------------
  free energy    TOTEN  =        -4.05613187 eV

  energy without entropy =       -4.06772768  energy(sigma->0) =       -4.05999714


--------------------------------------------------------------------------------------------------------




--------------------------------------- Iteration      1(  11)  ---------------------------------------


    POTLOK:  cpu time      0.1082: real time      0.1083
    SETDIJ:  cpu time      0.0013: real time      0.0013
     EDDAV:  cpu time      0.0273: real time      0.0273
       DOS:  cpu time      0.0003: real time      0.0004
    CHARGE:  cpu time      0.0117: real time      0.0117
    MIXING:  cpu time      0.0037: real time      0.0037
    --------------------------------------------
      LOOP:  cpu time      0.1525: real time      0.1527

 eigenvalue-minimisations  :    16
 total energy-change (2. order) : 0.5262228E-02  (-0.5407189E-02)
 number of electron       2.0000000 magnetization 
 augmentation part        0.0148554 magnetization 

 Broyden mixing:
  rms(total) = 0.53172E-02    rms(broyden)= 0.53143E-02
  rms(prec ) = 0.11475E-01
  weight for this iteration     100.00

 eigenvalues of (default mixing * dielectric matrix)
  average eigenvalue GAMMA=   2.1890
  4.0309  3.2192  2.2572  1.6797  0.9736  0.9736

 Free energy of the ion-electron system (eV)
  ---------------------------------------------------
  alpha Z        PSCENC =         0.00733884
  Ewald energy   TEWEN  =        -3.64529433
  -Hartree energ DENC   =       -12.84427329
  -exchange      EXHF   =         0.00000000
  -V(xc)+E(xc)   XCENC  =        -1.83678478
  PAW double counting   =        16.22734614      -10.68948984
  entropy T*S    EENTRO =         0.01159581
  eigenvalues    EBANDS =        -9.05893189
  atomic energy  EATOM  =        17.77762371
  Solvation  Ediel_sol  =         0.00000000
  ---------------------------------------------------
  free energy    TOTEN  =        -4.05086964 eV

  energy without entropy =       -4.06246545  energy(sigma->0) =       -4.05473491


--------------------------------------------------------------------------------------------------------




--------------------------------------- Iteration      1(  12)  ---------------------------------------


    POTLOK:  cpu time      0.1080: real time      0.1083
    SETDIJ:  cpu time      0.0013: real time      0.0013
     EDDAV:  cpu time      0.0273: real time      0.0273
       DOS:  cpu time      0.0001: real time      0.0002
    CHARGE:  cpu time      0.0116: real time      0.0116
    MIXING:  cpu time      0.0034: real time      0.0034
    --------------------------------------------
      LOOP:  cpu time      0.1517: real time      0.1521

 eigenvalue-minimisations  :    16
 total energy-change (2. order) :-0.1890496E-02  (-0.8586153E-03)
 number of electron       2.0000000 magnetization 
 augmentation part        0.0150543 magnetization 

 Broyden mixing:
  rms(total) = 0.99994E-02    rms(broyden)= 0.99977E-02
  rms(prec ) = 0.21559E-01
  weight for this iteration     100.00

 eigenvalues of (default mixing * dielectric matrix)
  average eigenvalue GAMMA=   2.0433
  4.5501  3.2281  2.0899  1.7049  0.8687  0.9306  0.9306

 Free energy of the ion-electron system (eV)
  ---------------------------------------------------
  alpha Z        PSCENC =         0.00733884
  Ewald energy   TEWEN  =        -3.64529433
  -Hartree energ DENC   =       -12.65907465
  -exchange      EXHF   =         0.00000000
  -V(xc)+E(xc)   XCENC  =        -1.86769098
  PAW double counting   =        16.19068436      -10.65262866
  entropy T*S    EENTRO =         0.01159581
  eigenvalues    EBANDS =        -9.21531425
  atomic energy  EATOM  =        17.77762371
  Solvation  Ediel_sol  =         0.00000000
  ---------------------------------------------------
  free energy    TOTEN  =        -4.05276013 eV

  energy without entropy =       -4.06435595  energy(sigma->0) =       -4.05662540


--------------------------------------------------------------------------------------------------------




--------------------------------------- Iteration      1(  13)  ---------------------------------------


    POTLOK:  cpu time      0.1075: real time      0.1077
    SETDIJ:  cpu time      0.0013: real time      0.0013
     EDDAV:  cpu time      0.0274: real time      0.0274
       DOS:  cpu time      0.0001: real time      0.0002
    CHARGE:  cpu time      0.0117: real time      0.0117
    MIXING:  cpu time      0.0034: real time      0.0034
    --------------------------------------------
      LOOP:  cpu time      0.1515: real time      0.1517

 eigenvalue-minimisations  :    16
 total energy-change (2. order) : 0.2450345E-03  (-0.1298647E-03)
 number of electron       2.0000000 magnetization 
 augmentation part        0.0150059 magnetization 

 Broyden mixing:
  rms(total) = 0.39739E-02    rms(broyden)= 0.39739E-02
  rms(prec ) = 0.78735E-02
  weight for this iteration     100.00

 eigenvalues of (default mixing * dielectric matrix)
  average eigenvalue GAMMA=   2.1118
  4.8730  3.6289  1.9576  1.9576  1.2974  1.2974  0.9413  0.9413

 Free energy of the ion-electron system (eV)
  ---------------------------------------------------
  alpha Z        PSCENC =         0.00733884
  Ewald energy   TEWEN  =        -3.64529433
  -Hartree energ DENC   =       -12.74764802
  -exchange      EXHF   =         0.00000000
  -V(xc)+E(xc)   XCENC  =        -1.85428632
  PAW double counting   =        16.28982669      -10.75196854
  entropy T*S    EENTRO =         0.01159581
  eigenvalues    EBANDS =        -9.13970294
  atomic energy  EATOM  =        17.77762371
  Solvation  Ediel_sol  =         0.00000000
  ---------------------------------------------------
  free energy    TOTEN  =        -4.05251510 eV

  energy without entropy =       -4.06411091  energy(sigma->0) =       -4.05638037


--------------------------------------------------------------------------------------------------------




--------------------------------------- Iteration      1(  14)  ---------------------------------------


    POTLOK:  cpu time      0.1075: real time      0.1076
    SETDIJ:  cpu time      0.0013: real time      0.0013
     EDDAV:  cpu time      0.0274: real time      0.0274
       DOS:  cpu time      0.0001: real time      0.0002
    CHARGE:  cpu time      0.0117: real time      0.0117
    MIXING:  cpu time      0.0035: real time      0.0035
    --------------------------------------------
      LOOP:  cpu time      0.1516: real time      0.1517

 eigenvalue-minimisations  :    16
 total energy-change (2. order) :-0.1913898E-04  (-0.3695551E-04)
 number of electron       2.0000000 magnetization 
 augmentation part        0.0149672 magnetization 

 Broyden mixing:
  rms(total) = 0.73379E-03    rms(broyden)= 0.73321E-03
  rms(prec ) = 0.15435E-02
  weight for this iteration     100.00

 eigenvalues of (default mixing * dielectric matrix)
  average eigenvalue GAMMA=   2.1185
  5.2912  3.4314  2.8495  2.0441  1.5353  1.0783  1.0783  0.8936  0.8649

 Free energy of the ion-electron system (eV)
  ---------------------------------------------------
  alpha Z        PSCENC =         0.00733884
  Ewald energy   TEWEN  =        -3.64529433
  -Hartree energ DENC   =       -12.78419012
  -exchange      EXHF   =         0.00000000
  -V(xc)+E(xc)   XCENC  =        -1.84881003
  PAW double counting   =        16.28528311      -10.74753911
  entropy T*S    EENTRO =         0.01159581
  eigenvalues    EBANDS =        -9.10854212
  atomic energy  EATOM  =        17.77762371
  Solvation  Ediel_sol  =         0.00000000
  ---------------------------------------------------
  free energy    TOTEN  =        -4.05253424 eV

  energy without entropy =       -4.06413005  energy(sigma->0) =       -4.05639951


--------------------------------------------------------------------------------------------------------




--------------------------------------- Iteration      1(  15)  ---------------------------------------


    POTLOK:  cpu time      0.1079: real time      0.1080
    SETDIJ:  cpu time      0.0013: real time      0.0013
     EDDAV:  cpu time      0.0275: real time      0.0275
       DOS:  cpu time      0.0001: real time      0.0002
    CHARGE:  cpu time      0.0117: real time      0.0117
    MIXING:  cpu time      0.0036: real time      0.0036
    --------------------------------------------
      LOOP:  cpu time      0.1521: real time      0.1523

 eigenvalue-minimisations  :    16
 total energy-change (2. order) :-0.1196532E-04  (-0.1899360E-05)
 number of electron       2.0000000 magnetization 
 augmentation part        0.0149596 magnetization 

 Broyden mixing:
  rms(total) = 0.39754E-03    rms(broyden)= 0.39741E-03
  rms(prec ) = 0.49005E-03
  weight for this iteration     100.00

 eigenvalues of (default mixing * dielectric matrix)
  average eigenvalue GAMMA=   2.0180
  5.1787  3.8210  2.2132  2.2132  1.4351  1.2714  1.2714  1.0015  0.8870  0.8870

 Free energy of the ion-electron system (eV)
  ---------------------------------------------------
  alpha Z        PSCENC =         0.00733884
  Ewald energy   TEWEN  =        -3.64529433
  -Hartree energ DENC   =       -12.79105792
  -exchange      EXHF   =         0.00000000
  -V(xc)+E(xc)   XCENC  =        -1.84767178
  PAW double counting   =        16.29954264      -10.76180987
  entropy T*S    EENTRO =         0.01159581
  eigenvalues    EBANDS =        -9.10281331
  atomic energy  EATOM  =        17.77762371
  Solvation  Ediel_sol  =         0.00000000
  ---------------------------------------------------
  free energy    TOTEN  =        -4.05254620 eV

  energy without entropy =       -4.06414202  energy(sigma->0) =       -4.05641147


--------------------------------------------------------------------------------------------------------




--------------------------------------- Iteration      1(  16)  ---------------------------------------


    POTLOK:  cpu time      0.1077: real time      0.1077
    SETDIJ:  cpu time      0.0013: real time      0.0013
     EDDAV:  cpu time      0.0273: real time      0.0273
       DOS:  cpu time      0.0001: real time      0.0001
    --------------------------------------------
      LOOP:  cpu time      0.1363: real time      0.1365

 eigenvalue-minimisations  :    16
 total energy-change (2. order) :-0.7322889E-06  (-0.4983388E-07)
 number of electron       2.0000000 magnetization 
 augmentation part        0.0149596 magnetization 

 Free energy of the ion-electron system (eV)
  ---------------------------------------------------
  alpha Z        PSCENC =         0.00733884
  Ewald energy   TEWEN  =        -3.64529433
  -Hartree energ DENC   =       -12.79136142
  -exchange      EXHF   =         0.00000000
  -V(xc)+E(xc)   XCENC  =        -1.84765529
  PAW double counting   =        16.30878604      -10.77104499
  entropy T*S    EENTRO =         0.01159581
  eigenvalues    EBANDS =        -9.10253531
  atomic energy  EATOM  =        17.77762371
  Solvation  Ediel_sol  =         0.00000000
  ---------------------------------------------------
  free energy    TOTEN  =        -4.05254694 eV

  energy without entropy =       -4.06414275  energy(sigma->0) =       -4.05641221


--------------------------------------------------------------------------------------------------------




 average (electrostatic) potential at core
  the test charge radii are     1.0393  0.5883
  (the norm of the test charge is              1.0000)
       1 -38.0259       2 -34.7095



 E-fermi :  -4.3829     XC(G=0):  -2.1748     alpha+bet : -0.6982

 Fermi energy:        -4.3828912091

 k-point     1 :       0.0000    0.0000    0.0000
  band No.  band energies     occupation 
      1      -4.5513      2.00000
      2      -1.3265     -0.00000
      3       0.6939     -0.00000
      4       0.6939     -0.00000
      5       1.3967      0.00000
      6       1.7757      0.00000
      7       2.1982      0.00000
      8       3.7716      0.00000


--------------------------------------------------------------------------------------------------------


 soft charge-density along one line, spin component           1
         0         1         2         3         4         5         6         7         8         9
 total charge-density along one line

 pseudopotential strength for first ion, spin component:           1
  1.233  -6.534   0.000  -0.028   0.000
 -6.534  38.395  -0.000   0.089  -0.000
  0.000  -0.000  -0.272   0.000  -0.000
 -0.028   0.089   0.000  -0.270   0.000
  0.000  -0.000  -0.000   0.000  -0.272
 total augmentation occupancy for first ion, spin component:           1
  1.030   0.009  -0.000   0.382  -0.000
  0.009   0.000  -0.000   0.003  -0.000
 -0.000  -0.000   0.000  -0.000   0.000
  0.382   0.003  -0.000   0.141  -0.000
 -0.000  -0.000   0.000  -0.000   0.000


------------------------ aborting loop because EDIFF is reached ----------------------------------------


    CHARGE:  cpu time      0.0118: real time      0.0118
    FORLOC:  cpu time      0.0052: real time      0.0052
    FORNL :  cpu time      0.0098: real time      0.0099
    STRESS:  cpu time      0.0362: real time      0.0362
    FORCOR:  cpu time      0.1035: real time      0.1035
    FORHAR:  cpu time      0.0289: real time      0.0289
    MIXING:  cpu time      0.0036: real time      0.0036
    OFIELD:  cpu time      0.0000: real time      0.0000

  FORCE on cell =-STRESS in cart. coord.  units (eV):
  Direction    XX          YY          ZZ          XY          YZ          ZX
  --------------------------------------------------------------------------------------
  Alpha Z     0.00734     0.00734     0.00734
  Ewald      -4.41675    -4.41675     5.18819     0.00000     0.00000     0.00000
  Hartree     4.23693     4.23693     4.31857     0.00000    -0.00000    -0.00000
  E(xc)      -4.39672    -4.39672    -4.48979     0.00000     0.00000     0.00000
  Local      -5.17225    -5.17225   -16.19132    -0.00000     0.00000     0.00000
  n-local    -1.41031    -1.41031    -0.64320     0.00000    -0.00000    -0.00000
  augment     0.12195     0.12195     0.14935     0.00000     0.00000    -0.00000
  Kinetic    10.59042    10.59042    10.63059     0.00000     0.00000     0.00000
  Fock        0.00000     0.00000     0.00000     0.00000     0.00000     0.00000
  -------------------------------------------------------------------------------------
  Total      -0.43939    -0.43939    -1.03027     0.00000     0.00000     0.00000
  in kB      -2.74938    -2.74938    -6.44674     0.00000     0.00000     0.00000
  external pressure =       -3.98 kB  Pullay stress =        0.00 kB


 VOLUME and BASIS-vectors are now :
 -----------------------------------------------------------------------------
  energy-cutoff  :      500.00
  volume of cell :      256.05
      direct lattice vectors                 reciprocal lattice vectors
     6.350000000  0.000000000  0.000000000     0.157480315  0.000000000  0.000000000
     0.000000000  6.350000000  0.000000000     0.000000000  0.157480315  0.000000000
     0.000000000  0.000000000  6.350000000     0.000000000  0.000000000  0.157480315

  length of vectors
     6.350000000  6.350000000  6.350000000     0.157480315  0.157480315  0.157480315


 FORCES acting on ions
    electron-ion (+dipol)            ewald-force                    non-local-force                 convergence-correction
 -----------------------------------------------------------------------------------------------
   -.230E-06 -.153E-06 0.929E+01   -.355E-17 0.428E-18 -.502E+01   0.260E-06 0.214E-06 -.445E+01   -.360E-06 -.283E-06 0.223E-04
   -.296E-06 -.886E-07 -.398E+01   0.606E-17 0.592E-17 0.502E+01   -.976E-07 -.531E-07 -.827E+00   0.345E-06 0.130E-06 0.674E-04
 -----------------------------------------------------------------------------------------------
   -.526E-06 -.241E-06 0.531E+01   0.251E-17 0.635E-17 0.000E+00   0.163E-06 0.161E-06 -.527E+01   -.153E-07 -.153E-06 0.897E-04


 POSITION                                       TOTAL-FORCE (eV/Angst)
 -----------------------------------------------------------------------------------
      0.00000      0.00000      0.00000        -0.000000     -0.000000     -0.198918
      0.00000      0.00000      1.62106         0.000000      0.000000      0.198918
 -----------------------------------------------------------------------------------
    total drift:                               -0.000000     -0.000000      0.040330


--------------------------------------------------------------------------------------------------------



  FREE ENERGIE OF THE ION-ELECTRON SYSTEM (eV)
  ---------------------------------------------------
  free  energy   TOTEN  =        -4.05254694 eV

  energy  without entropy=       -4.06414275  energy(sigma->0) =       -4.05641221



--------------------------------------------------------------------------------------------------------


    POTLOK:  cpu time      0.1093: real time      0.1093


--------------------------------------------------------------------------------------------------------


 writing wavefunctions
     LOOP+:  cpu time      2.7662: real time      2.8862
    4ORBIT:  cpu time      0.0000: real time      0.0000

 total amount of memory used by VASP MPI-rank0    55328. kBytes
=======================================================================

   base      :      30000. kBytes
   nonlr-proj:        154. kBytes
   fftplans  :       8029. kBytes
   grid      :      17031. kBytes
   one-center:          8. kBytes
   wavefun   :        106. kBytes

  
  
 General timing and accounting informations for this job:
 ========================================================
  
                  Total CPU time used (sec):        4.109
                            User time (sec):        3.985
                          System time (sec):        0.124
                         Elapsed time (sec):        4.603
  
                   Maximum memory used (kb):       69956.
                   Average memory used (kb):          N/A
  
                          Minor page faults:        47613
                          Major page faults:            0
                 Voluntary context switches:         1296
 
 PROFILE, used timers:     279
 =============================
 
 index                 routine                    time                            calls level
----------------------------------------------------------------------------------------------
    1    total_time                            4.604029                                1   1
    2      crpa_reader                           0.000017                              1   2
    3      m_bcast_d                             0.000033                              3   2
    4      brgrid                                0.000258                              1   2
    5      stufak                                0.001778                              1   2
    6      m_sumb_d                              0.009361                            205   2
    7      fft3d_mpi                             0.011389                              3   2
    8        fftbrc_mpi                            0.010940                            3   3
    9          fftbas_plan_mpi                       0.010938                          3   4
   10            dfftw_execute                         0.005512                        9   5
   11            map_forward                           0.005202                        6   5
   12              map_gather                            0.001637                      3   6
   13              m_alltoallv_z                         0.001588                      3   6
   14              map_scatter                           0.001967                      3   6
   15      rspher_all                            0.000472                              2   2
   16      m_bcast_z                             0.000426                              8   2
   17      setdij_                               0.000853                              2   2
   18        m_sumb_d                              0.000136                            2   3
   19      vectorpot                             0.000001                              1   2
   20      proall                                0.002453                              1   2
   21        phaser                                0.000000                            1   3
   22        rpro_isp                              0.002450                            1   3
   23          fftwav_mpi                            0.002337                          2   4
   24            fftwav                                0.002336                        2   5
   25              fft3d                                 0.001999                      2   6
   26          rpromu                                0.000083                          1   4
   27            rpromu_gemm                           0.000047                        2   5
   28      orthch                                0.000375                              1   2
   29        overl                                 0.000001                            1   3
   30        redis_proj                            0.000195                            3   3
   31          m_alltoall_d                          0.000193                          6   4
   32        redis_pw                              0.000103                            2   3
   33          m_alltoall_d                          0.000092                          4   4
   34        orth1                                 0.000021                            1   3
   35        m_sumb_d                              0.000023                            1   3
   36        choleski                              0.000008                            1   3
   37        lincom                                0.000020                            1   3
   38      redis_pw_over_bands                   0.000001                              1   2
   39      fewald                                0.000351                              1   2
   40        rsp                                   0.000037                            1   3
   41        rcp                                   0.000006                            1   3
   42        m_sumb_d                              0.000009                            5   3
   43      elmin                                 1.947374                              1   2
   44        potlok                                1.293622                           12   3
   45          fft3d_mpi                             0.649506                        156   4
   46            fftbrc_mpi                            0.613210                      156   5
   47              fftbas_plan_mpi                       0.613168                    156   6
   48                dfftw_execute                         0.259228                  468   7
   49                map_forward                           0.159421                  168   7
   50                  map_gather                            0.072783                 96   8
   51                  m_alltoallv_z                         0.038582                 96   8
   52                  map_scatter                           0.047683                 96   8
   53                map_backward                          0.184207                  144   7
   54                  map_gather                            0.050189                 72   8
   55                  m_alltoallv_z                         0.041029                 72   8
   56                  map_scatter                           0.092657                 72   8
   57          ggaall_grid                           0.267685                         12   4
   58          m_sumb_d                              0.000213                         60   4
   59          pothar                                0.015076                         12   4
   60            m_sumb_d                              0.000137                       12   5
   61          m_bcast_d                             0.004402                         12   4
   62        potlok_metagga                        0.000005                           12   3
   63        vectorpot                             0.000006                           12   3
   64        setdij_                               0.005124                           12   3
   65          m_sumb_d                              0.000343                         12   4
   66        set_dd_magatom                        0.000003                           12   3
   67        set_dd_paw                            0.010232                           12   3
   68          m_sumb_d                              0.010148                         84   4
   69        eddav                                 0.467207                           16   3
   70          phaser                                0.000001                         16   4
   71          redis_proj                            0.002732                        344   4
   72            m_alltoall_d                          0.002584                      376   5
   73          redis_pw                              0.007299                        274   4
   74            m_alltoall_d                          0.006381                      306   5
   75          newband                               0.050721                         67   4
   76            w1_copy                               0.000382                       64   5
   77            redis_pw                              0.000854                       32   5
   78              m_alltoall_d                          0.000740                     32   6
   79            redis_proj                            0.000121                       32   5
   80              m_alltoall_d                          0.000106                     32   6
   81            fftwav_mpi                            0.040281                       32   5
   82              fftwav                                0.040266                     32   6
   83                fft3d                                 0.034352                   32   7
   84            eccp                                  0.008583                       32   5
   85            truncate_high_frequency_w1            0.000006                       32   5
   86            setup_precond                         0.000342                       32   5
   87          m_sumb_d                              0.002176                        169   4
   88          hamiltmu                              0.204585                         51   4
   89            vhamil                                0.075992                      102   5
   90            raccmu_                               0.004766                       51   5
   91              overl1                                0.000105                    102   6
   92              racc0mu                               0.004503                     51   6
   93                gemm                                  0.002144                  102   7
   94            kinhamil                              0.123540                      102   5
   95              fftext_mpi                            0.122173                    102   6
   96                fft3d_mpi                             0.121080                  102   7
   97                  fft3d                                 0.120991                102   8
   98          overl                                 0.000088                        172   4
   99          truncate_high_frequency_w1            0.000010                        102   4
  100          w1_copy                               0.001749                        242   4
  101          orth1                                 0.005644                        137   4
  102          lapack                                0.004398                         51   4
  103          m_bcast_d                             0.000549                        153   4
  104          apply_precond                         0.000956                         70   4
  105          fftwav_mpi                            0.175829                        140   4
  106            fftwav                                0.175782                      140   5
  107              fft3d                                 0.148199                    140   6
  108          w1_projall                            0.002850                         35   4
  109            rpromu                                0.002706                       35   5
  110              rpromu_gemm                           0.001488                     70   6
  111          ggemm                                 0.001287                         51   4
  112        m_sumb_d                              0.000401                           50   3
  113        densta                                0.000818                           16   3
  114          m_sumb_d                              0.000572                        532   4
  115        set_charge                            0.118733                           11   3
  116          soft_charge                           0.037320                         11   4
  117            fftwav_mpi                            0.011682                       11   5
  118              fftwav                                0.011676                     11   6
  119                fft3d                                 0.010794                   11   7
  120            pw_charge                             0.003131                       11   5
  121            m_sumb_d                              0.005852                       11   5
  122            fft_gq                                0.011987                       11   5
  123              fft3d_mpi                             0.011363                     11   6
  124                fftbrc_mpi                            0.008472                   11   7
  125                  fftbas_plan_mpi                       0.008471                 11   8
  126                    dfftw_execute                         0.004160               33   9
  127                    map_backward                          0.003666               22   9
  128                      map_gather                            0.001249             22  10
  129                      m_alltoallv_z                         0.001938             22  10
  130                      map_scatter                           0.000450             22  10
  131          depsum                                0.000102                         11   4
  132            m_sumb_d                              0.000082                       11   5
  133          augmentation_charge                   0.075752                         11   4
  134            fft3d_mpi                             0.050894                       11   5
  135              fftbrc_mpi                            0.048216                     11   6
  136                fftbas_plan_mpi                       0.048203                   11   7
  137                  dfftw_execute                         0.018698                 33   8
  138                  map_backward                          0.028530                 22   8
  139                    map_gather                            0.006575               11   9
  140                    m_alltoallv_z                         0.007712               11   9
  141                    map_scatter                           0.014188               11   9
  142        brmix                                 0.036094                           11   3
  143          m_sumb_d                              0.000333                         66   4
  144          brpre                                 0.000345                         11   4
  145          setg0                                 0.014424                         12   4
  146          broyd                                 0.003420                         11   4
  147            m_sumb_d                              0.000540                      126   5
  148            brsav                                 0.000317                      112   5
  149            brget                                 0.000954                      368   5
  150      rotate_active_occupied_orbital        0.000000                              1   2
  151      force_and_stress                      0.200476                              1   2
  152        set_charge                            0.011049                            1   3
  153          soft_charge                           0.003710                          1   4
  154            fftwav_mpi                            0.001259                        1   5
  155              fftwav                                0.001258                      1   6
  156                fft3d                                 0.001070                    1   7
  157            pw_charge                             0.000355                        1   5
  158            m_sumb_d                              0.000511                        1   5
  159            fft_gq                                0.001098                        1   5
  160              fft3d_mpi                             0.001041                      1   6
  161                fftbrc_mpi                            0.000775                    1   7
  162                  fftbas_plan_mpi                       0.000775                  1   8
  163                    dfftw_execute                         0.000379                3   9
  164                    map_backward                          0.000337                2   9
  165                      map_gather                            0.000111              2  10
  166                      m_alltoallv_z                         0.000184              2  10
  167                      map_scatter                           0.000041              2  10
  168          depsum                                0.000007                          1   4
  169            m_sumb_d                              0.000005                        1   5
  170          augmentation_charge                   0.006787                          1   4
  171            fft3d_mpi                             0.004596                        1   5
  172              fftbrc_mpi                            0.004360                      1   6
  173                fftbas_plan_mpi                       0.004360                    1   7
  174                  dfftw_execute                         0.001686                  3   8
  175                  map_backward                          0.002582                  2   8
  176                    map_gather                            0.000505                1   9
  177                    m_alltoallv_z                         0.000806                1   9
  178                    map_scatter                           0.001267                1   9
  179        forloc                                0.005197                            1   3
  180          m_sumb_d                              0.000052                          1   4
  181        fornlr                                0.008254                            1   3
  182          rspher_all                            0.000939                          3   4
  183          phaser                                0.000001                          3   4
  184          rpro_isp                              0.007286                          3   4
  185            fftwav_mpi                            0.007051                        6   5
  186              fftwav                                0.007050                      6   6
  187                fft3d                                 0.006242                    6   7
  188            rpromu                                0.000213                        3   5
  189              rpromu_gemm                           0.000114                      6   6
  190          m_sumb_d                              0.000017                          1   4
  191        fordep                                0.001592                            1   3
  192          setdij_                               0.001588                          6   4
  193            m_sumb_d                              0.000048                        6   5
  194        setdij_                               0.004915                           20   3
  195          m_sumb_d                              0.000150                         20   4
  196        set_dd_magatom                        0.000000                            1   3
  197        set_dd_paw                            0.000838                            1   3
  198          m_sumb_d                              0.000832                          7   4
  199        strkin                                0.000046                            1   3
  200          m_sumb_d                              0.000001                          1   4
  201        strelo                                0.007113                            1   3
  202          m_sumb_d                              0.000007                          2   4
  203        strnlr                                0.024352                            1   3
  204          rspher_all                            0.002712                          9   4
  205          phaser                                0.000001                          9   4
  206          rpro_isp                              0.021575                          9   4
  207            fftwav_mpi                            0.020905                       18   5
  208              fftwav                                0.020901                     18   6
  209                fft3d                                 0.018674                   18   7
  210            rpromu                                0.000628                        9   5
  211              rpromu_gemm                           0.000362                     18   6
  212          m_sumb_d                              0.000020                          1   4
  213        fft3d_mpi                             0.048327                           11   3
  214          fftbrc_mpi                            0.046107                         11   4
  215            fftbas_plan_mpi                       0.046103                       11   5
  216              dfftw_execute                         0.019372                     33   6
  217              map_forward                           0.010695                     10   6
  218                map_gather                            0.004867                    5   7
  219                m_alltoallv_z                         0.002503                    5   7
  220                map_scatter                           0.003305                    5   7
  221              map_backward                          0.015325                     12   6
  222                map_gather                            0.004097                    6   7
  223                m_alltoallv_z                         0.003418                    6   7
  224                map_scatter                           0.007786                    6   7
  225        ggaall_grid                           0.022296                            1   3
  226        m_sumb_d                              0.000016                            5   3
  227        forhar                                0.009958                            2   3
  228          m_sumb_d                              0.000013                          2   4
  229        strehar                               0.005817                            1   3
  230          m_sumb_d                              0.000270                          1   4
  231        chggra                                0.022241                            1   3
  232          fft3d_mpi                             0.012676                          3   4
  233            fftbrc_mpi                            0.012257                        3   5
  234              fftbas_plan_mpi                       0.012255                      3   6
  235                dfftw_execute                         0.005284                    9   7
  236                map_backward                          0.002427                    2   7
  237                  map_gather                            0.000641                  1   8
  238                  m_alltoallv_z                         0.000589                  1   8
  239                  map_scatter                           0.001191                  1   8
  240                map_forward                           0.004347                    4   7
  241                  map_gather                            0.001999                  2   8
  242                  m_alltoallv_z                         0.001039                  2   8
  243                  map_scatter                           0.001299                  2   8
  244          m_sumb_d                              0.000009                          2   4
  245          pothar                                0.001283                          1   4
  246            m_sumb_d                              0.000012                        1   5
  247        brmix                                 0.003622                            1   3
  248          m_sumb_d                              0.000012                          6   4
  249          brpre                                 0.000032                          1   4
  250          setg0                                 0.001261                          1   4
  251          broyd                                 0.000650                          1   4
  252            m_sumb_d                              0.000083                       18   5
  253            brget                                 0.000176                       64   5
  254            brsav                                 0.000057                       16   5
  255        m_bcast_d                             0.000005                            2   3
  256      potlok                                0.107791                              1   2
  257        fft3d_mpi                             0.053975                           13   3
  258          fftbrc_mpi                            0.050994                         13   4
  259            fftbas_plan_mpi                       0.050990                       13   5
  260              dfftw_execute                         0.021628                     39   6
  261              map_forward                           0.013193                     14   6
  262                map_gather                            0.006056                    8   7
  263                m_alltoallv_z                         0.003175                    8   7
  264                map_scatter                           0.003927                    8   7
  265              map_backward                          0.015304                     12   6
  266                map_gather                            0.004221                    6   7
  267                m_alltoallv_z                         0.003252                    6   7
  268                map_scatter                           0.007800                    6   7
  269        ggaall_grid                           0.022373                            1   3
  270        m_sumb_d                              0.000013                            5   3
  271        pothar                                0.001261                            1   3
  272          m_sumb_d                              0.000006                          1   4
  273        m_bcast_d                             0.000362                            1   3
  274      potlok_metagga                        0.000001                              1   2
  275      set_dd_magatom                        0.000001                              1   2
  276      set_dd_paw                            0.000862                              1   2
  277        m_sumb_d                              0.000855                            7   3
  278      densta                                0.000058                              1   2
  279        m_sumb_d                              0.000049                           33   3
 
 Flat profile
 ============
 
             routine name                   CPU           calls
 ---------------------------------------------------------------
 total_time                              2.319699           1
 potlok                                  0.386546          13
 fft3d                                   0.342321         312
 dfftw_execute                           0.335946         630
 ggaall_grid                             0.312354          14
 map_scatter                             0.183562         235
 map_gather                              0.154930         235
 m_alltoallv_z                           0.105814         235
 vhamil                                  0.075992         102
 fft3d_mpi                               0.048525         312
 fftwav                                  0.037938         210
 m_sumb_d                                0.033307        1468
 augmentation_charge                     0.027050          12
 force_and_stress                        0.024838           1
 brmix                                   0.019239          12
 pothar                                  0.017465          14
 setg0                                   0.015685          13
 elmin                                   0.015131           1
 fftbas_plan_mpi                         0.014081         210
 setdij_                                 0.011803          40
 m_alltoall_d                            0.010097         756
 forhar                                  0.009945           2
 eccp                                    0.008583          32
 chggra                                  0.008273           1
 strelo                                  0.007106           1
 eddav                                   0.006333          16
 set_charge                              0.006104          12
 orth1                                   0.005665         138
 strehar                                 0.005547           1
 m_bcast_d                               0.005351         171
 soft_charge                             0.005156          12
 forloc                                  0.005145           1
 lapack                                  0.004398          51
 rspher_all                              0.004122          14
 pw_charge                               0.003486          12
 racc0mu                                 0.002359          51
 gemm                                    0.002144         102
 w1_copy                                 0.002131         306
 rpromu_gemm                             0.002011          96
 broyd                                   0.001942          12
 stufak                                  0.001778           1
 rpromu                                  0.001618          48
 kinhamil                                0.001367         102
 ggemm                                   0.001287          51
 brget                                   0.001131         432
 fftext_mpi                              0.001093         102
 redis_pw                                0.001042         308
 apply_precond                           0.000956          70
 fft_gq                                  0.000681          12
 map_backward                            0.000481         218
 map_forward                             0.000449         202
 m_bcast_z                               0.000426           8
 brpre                                   0.000377          12
 brsav                                   0.000373         128
 setup_precond                           0.000342          32
 fewald                                  0.000299           1
 hamiltmu                                0.000288          51
 brgrid                                  0.000258           1
 densta                                  0.000255          17
 redis_proj                              0.000164         379
 raccmu_                                 0.000158          51
 newband                                 0.000152          67
 w1_projall                              0.000144          35
 overl1                                  0.000105         102
 set_dd_paw                              0.000097          14
 rpro_isp                                0.000093          13
 overl                                   0.000089         173
 fftwav_mpi                              0.000076         210
 fftbrc_mpi                              0.000068         210
 strkin                                  0.000045           1
 strnlr                                  0.000044           1
 rsp                                     0.000037           1
 depsum                                  0.000022          12
 lincom                                  0.000020           1
 crpa_reader                             0.000017           1
 truncate_high_frequency_w1              0.000016         134
 fornlr                                  0.000012           1
 choleski                                0.000008           1
 vectorpot                               0.000007          13
 rcp                                     0.000006           1
 potlok_metagga                          0.000006          13
 set_dd_magatom                          0.000004          14
 orthch                                  0.000004           1
 fordep                                  0.000004           1
 proall                                  0.000003           1
 phaser                                  0.000003          29
 redis_pw_over_bands                     0.000001           1
 rotate_active_occupied_orbital          0.000000           1
 ---------------------------------------------------------------
  summed up times    4.6040291786193848     
 
 Accumulative profile
 ====================
 
             routine name                   CPU           calls
 ---------------------------------------------------------------
 total_time                              4.604029           1
 elmin                                   1.947374           1
 potlok                                  1.401413          13
 fft3d_mpi                               0.964847         312
 fftbrc_mpi                              0.795331         210
 fftbas_plan_mpi                         0.795263         210
 eddav                                   0.467207          16
 fft3d                                   0.342321         312
 dfftw_execute                           0.335946         630
 ggaall_grid                             0.312354          14
 fftwav_mpi                              0.259344         210
 fftwav                                  0.259269         210
 map_backward                            0.252378         218
 hamiltmu                                0.204585          51
 force_and_stress                        0.200476           1
 map_forward                             0.192858         202
 map_scatter                             0.183562         235
 map_gather                              0.154930         235
 set_charge                              0.129782          12
 kinhamil                                0.123540         102
 fftext_mpi                              0.122173         102
 m_alltoallv_z                           0.105814         235
 augmentation_charge                     0.082539          12
 vhamil                                  0.075992         102
 newband                                 0.050721          67
 soft_charge                             0.041030          12
 brmix                                   0.039716          12
 m_sumb_d                                0.033307        1468
 rpro_isp                                0.031311          13
 strnlr                                  0.024352           1
 chggra                                  0.022241           1
 pothar                                  0.017620          14
 setg0                                   0.015685          13
 fft_gq                                  0.013085          12
 setdij_                                 0.012480          40
 set_dd_paw                              0.011932          14
 m_alltoall_d                            0.010097         756
 forhar                                  0.009958           2
 eccp                                    0.008583          32
 redis_pw                                0.008255         308
 fornlr                                  0.008254           1
 strelo                                  0.007113           1
 strehar                                 0.005817           1
 orth1                                   0.005665         138
 m_bcast_d                               0.005351         171
 forloc                                  0.005197           1
 raccmu_                                 0.004766          51
 racc0mu                                 0.004503          51
 lapack                                  0.004398          51
 rspher_all                              0.004122          14
 broyd                                   0.004070          12
 rpromu                                  0.003629          48
 pw_charge                               0.003486          12
 redis_proj                              0.003048         379
 w1_projall                              0.002850          35
 proall                                  0.002453           1
 gemm                                    0.002144         102
 w1_copy                                 0.002131         306
 rpromu_gemm                             0.002011          96
 stufak                                  0.001778           1
 fordep                                  0.001592           1
 ggemm                                   0.001287          51
 brget                                   0.001131         432
 apply_precond                           0.000956          70
 densta                                  0.000875          17
 m_bcast_z                               0.000426           8
 brpre                                   0.000377          12
 orthch                                  0.000375           1
 brsav                                   0.000373         128
 fewald                                  0.000351           1
 setup_precond                           0.000342          32
 brgrid                                  0.000258           1
 depsum                                  0.000109          12
 overl1                                  0.000105         102
 overl                                   0.000089         173
 strkin                                  0.000046           1
 rsp                                     0.000037           1
 lincom                                  0.000020           1
 crpa_reader                             0.000017           1
 truncate_high_frequency_w1              0.000016         134
 choleski                                0.000008           1
 vectorpot                               0.000007          13
 rcp                                     0.000006           1
 potlok_metagga                          0.000006          13
 set_dd_magatom                          0.000004          14
 phaser                                  0.000003          29
 redis_pw_over_bands                     0.000001           1
 rotate_active_occupied_orbital          0.000000           1
 ---------------------------------------------------------------
 
Profiling took   0.003136  0.002210  0.001635  0.001594 seconds
Profiling took   0.001490 seconds
