       N       E                     dE             d eps       ncg     rms          rms(c)
DIA:   1    -0.970787340768E+01   -0.97079E+01    0.00000E+00     0   0.000E+00
   1 F= -.97078734E+01 E0= -.97078734E+01  d E =0.000000E+00
