 vasp.6.3.0 20Jan22 (build Mar 06 2023 08:06:32) gamma-only                     
  
 executed on             LinuxIFC date 2025.05.22  11:52:58
 running on   48 total cores
 distrk:  each k-point on   48 cores,    1 groups
 distr:  one band on NCORE=   1 cores,   48 groups


--------------------------------------------------------------------------------------------------------


 INCAR:
   ENCUT = 600
   SIGMA = 0.001
   EDIFF = 1E-6
   LHFCALC = .TRUE.
   AEXX = 1.0
   ISYM = -1
   ALGO = sub
   NELM = 1
   NBANDS = 4945
   ISYM = -1
   PREC = Accurate

 POTCAR:    PAW_PBE Li_AE_GW 25Mar2010            
 POTCAR:    PAW_PBE H_GW 21Apr2008                
 -----------------------------------------------------------------------------
|                                                                             |
|           W    W    AA    RRRRR   N    N  II  N    N   GGGG   !!!           |
|           W    W   A  A   R    R  NN   N  II  NN   N  G    G  !!!           |
|           W    W  A    A  R    R  N N  N  II  N N  N  G       !!!           |
|           W WW W  AAAAAA  RRRRR   N  N N  II  N  N N  G  GGG   !            |
|           WW  WW  A    A  R   R   N   NN  II  N   NN  G    G                |
|           W    W  A    A  R    R  N    N  II  N    N   GGGG   !!!           |
|                                                                             |
|     For optimal performance we recommend to set                             |
|       NCORE = 2 up to number-of-cores-per-socket                            |
|     NCORE specifies how many cores store one orbital (NPAR=cpu/NCORE).      |
|     This setting can greatly improve the performance of VASP for DFT.       |
|     The default, NCORE=1 might be grossly inefficient on modern             |
|     multi-core architectures or massively parallel machines. Do your        |
|     own testing! More info at https://www.vasp.at/wiki/index.php/NCORE      |
|     Unfortunately you need to use the default for GW and RPA                |
|     calculations (for HF NCORE is supported but not extensively tested      |
|     yet).                                                                   |
|                                                                             |
 -----------------------------------------------------------------------------

 POTCAR:    PAW_PBE Li_AE_GW 25Mar2010            
   SHA256 =  ae13e6342699fe0ac99e545771c218bb29ee312c520ed4d7aae94e33ddcb6cd4 Li_AE_GW/POTCAR       
   COPYR  = (c) Copyright 25Mar2010 Georg Kresse                                                    
   COPYR  = This file is part of the software VASP. Any use, copying, and all other rights are regul
   COPYR  = If you do not have a valid VASP license, you may not use, copy or distribute this file. 
   VRHFIN =Li: 1s2s                                                                                 
   LEXCH  = PE                                                                                      
   EATOM  =   200.9989 eV,   14.7730 Ry                                                             
                                                                                                    
   TITEL  = PAW_PBE Li_AE_GW 25Mar2010                                                              
   LULTRA =        F    use ultrasoft PP ?                                                          
   IUNSCR =        0    unscreen: 0-lin 1-nonlin 2-no                                               
   RPACOR =    0.000    partial core radius                                                         
   POMASS =    7.010; ZVAL   =    3.000    mass and valenz                                          
   RCORE  =    1.500    outmost cutoff radius                                                       
   RWIGS  =    1.600; RWIGS  =    0.847    wigner-seitz radius (au A)                               
   ENMAX  =  433.699; ENMIN  =  325.274 eV                                                          
   RCLOC  =    1.003    cutoff for local pot                                                        
   LCOR   =        T    correct aug charges                                                         
   LPAW   =        T    paw PP                                                                      
   EAUG   = 1534.740                                                                                
   RMAX   =    1.536    core radius for proj-oper                                                   
   RAUG   =    1.300    factor for augmentation sphere                                              
   RDEP   =    1.520    radius for radial grids                                                     
   RDEPT  =    1.300    core radius for aug-charge                                                  
                                                                                                    
   Atomic configuration                                                                             
    5 entries                                                                                       
     n  l   j            E        occ.                                                              
     1  0  0.50       -53.3604   2.0000                                                             
     1  0  0.50       -52.0001   0.0000                                                             
     2  1  0.50        -1.5636   1.0000                                                             
     3  2  1.50        -1.3606   0.0000                                                             
     4  3  2.50        -1.3606   0.0000                                                             
   Description                                                                                      
     l       E           TYP  RCUT    TYP  RCUT                                                     
     0    -53.3603633     23  1.200                                                                 
     0    -52.0001064     23  1.200                                                                 
     0    176.8757380     23  1.300                                                                 
     1     -1.5635925     23  1.500                                                                 
     1    122.4524340     23  1.500                                                                 
     1    299.3281720     23  1.500                                                                 
     2     54.4233040     23  1.500                                                                 
     2    204.0873900     23  1.500                                                                 
     3    122.4524340     23  1.500                                                                 
  local pseudopotential read in
  kinetic energy density of atom read in
  atomic valenz-charges read in
  non local Contribution for L=           0  read in
    real space projection operators read in
  non local Contribution for L=           0  read in
    real space projection operators read in
  non local Contribution for L=           0  read in
    real space projection operators read in
  non local Contribution for L=           1  read in
    real space projection operators read in
  non local Contribution for L=           1  read in
    real space projection operators read in
  non local Contribution for L=           1  read in
    real space projection operators read in
  non local Contribution for L=           2  read in
    real space projection operators read in
  non local Contribution for L=           2  read in
    real space projection operators read in
  non local Contribution for L=           3  read in
    real space projection operators read in
    PAW grid and wavefunctions read in
 
   number of l-projection  operators is LMAX  =           9
   number of lm-projection operators is LMMAX =          29
 
 POTCAR:    PAW_PBE H_GW 21Apr2008                
   SHA256 =  cecc88617a3d1ece9865646f5d462fc0f44fd1f68d6f2eb08f18a2e421902afb H_GW/POTCAR           
   COPYR  = (c) Copyright 21Apr2008 Georg Kresse                                                    
   COPYR  = This file is part of the software VASP. Any use, copying, and all other rights are regul
   COPYR  = If you do not have a valid VASP license, you may not use, copy or distribute this file. 
   VRHFIN =H: ultrasoft test                                                                        
   LEXCH  = PE                                                                                      
   EATOM  =    12.4884 eV,    0.9179 Ry                                                             
                                                                                                    
   TITEL  = PAW_PBE H_GW 21Apr2008                                                                  
   LULTRA =        F    use ultrasoft PP ?                                                          
   IUNSCR =        0    unscreen: 0-lin 1-nonlin 2-no                                               
   RPACOR =    0.000    partial core radius                                                         
   POMASS =    1.000; ZVAL   =    1.000    mass and valenz                                          
   RCORE  =    1.100    outmost cutoff radius                                                       
   RWIGS  =    1.100; RWIGS  =    0.582    wigner-seitz radius (au A)                               
   ENMAX  =  300.000; ENMIN  =  250.000 eV                                                          
   RCLOC  =    0.701    cutoff for local pot                                                        
   LCOR   =        T    correct aug charges                                                         
   LPAW   =        T    paw PP                                                                      
   EAUG   =  500.000                                                                                
   RMAX   =    1.123    core radius for proj-oper                                                   
   RAUG   =    1.200    factor for augmentation sphere                                              
   RDEP   =    1.112    radius for radial grids                                                     
   RDEPT  =    1.100    core radius for aug-charge                                                  
                                                                                                    
   Atomic configuration                                                                             
    3 entries                                                                                       
     n  l   j            E        occ.                                                              
     1  0  0.50        -6.4927   1.0000                                                             
     2  1  0.50        -3.4015   0.0000                                                             
     3  2  1.50        13.6058   0.0000                                                             
   Description                                                                                      
     l       E           TYP  RCUT    TYP  RCUT                                                     
     0     -6.4927495     23  0.950                                                                 
     0      6.8029130     23  0.950                                                                 
     1     -4.0817478     23  1.100                                                                 
     1    108.8466080     23  1.100                                                                 
     2     81.6349560     23  1.100                                                                 
  local pseudopotential read in
  kinetic energy density of atom read in
  atomic valenz-charges read in
  non local Contribution for L=           0  read in
    real space projection operators read in
  non local Contribution for L=           0  read in
    real space projection operators read in
  non local Contribution for L=           1  read in
    real space projection operators read in
  non local Contribution for L=           1  read in
    real space projection operators read in
  non local Contribution for L=           2  read in
    real space projection operators read in
    PAW grid and wavefunctions read in
 
   number of l-projection  operators is LMAX  =           5
   number of lm-projection operators is LMMAX =          13
 
  PAW_PBE Li_AE_GW 25Mar2010            :
 energy of atom  1       EATOM= -200.9989
 kinetic energy error for atom=    0.0082 (will be added to EATOM!!)
  PAW_PBE H_GW 21Apr2008                :
 energy of atom  2       EATOM=  -12.4884
 kinetic energy error for atom=    0.0035 (will be added to EATOM!!)
 
 
 POSCAR: LiH
  positions in cartesian coordinates
  No initial velocities read in
 exchange correlation table for  LEXCH =        8
   RHO(1)=    0.500       N(1)  =     2000
   RHO(2)=  100.500       N(2)  =     4000
 


--------------------------------------------------------------------------------------------------------


 ion  position               nearest neighbor table
   1  0.000  0.000  0.000-   2 1.62
   2  0.000  0.000  0.306-   1 1.62
 

IMPORTANT INFORMATION: All symmetrisations will be switched off!
NOSYMM: (Re-)initialisation of all symmetry stuff for point group C_1.


----------------------------------------------------------------------------------------

                                     Primitive cell                                     

  volume of cell :     148.2000

  direct lattice vectors                    reciprocal lattice vectors
     5.291954090  0.000000000  0.000000000     0.188966114  0.000000000  0.000000000
     0.000000000  5.291954090  0.000000000     0.000000000  0.188966114  0.000000000
     0.000000000  0.000000000  5.291954090     0.000000000  0.000000000  0.188966114

  length of vectors
     5.291954090  5.291954090  5.291954090     0.188966114  0.188966114  0.188966114

  position of ions in fractional coordinates (direct lattice)
     0.000000000  0.000000000  0.000000000
     0.000000000  0.000000000  0.306325966

  ion indices of the primitive-cell ions
   primitive index   ion index
                 1           1
                 2           2

----------------------------------------------------------------------------------------

 
 
 KPOINTS: Automatically generated mesh            

Automatic generation of k-mesh.
 Grid dimensions read from file:
 generate k-points for:    1    1    1

 Generating k-lattice:

  Cartesian coordinates                     Fractional coordinates (reciprocal lattice)
     0.188966114  0.000000000  0.000000000     1.000000000  0.000000000  0.000000000
     0.000000000  0.188966114  0.000000000     0.000000000  1.000000000  0.000000000
     0.000000000  0.000000000  0.188966114     0.000000000  0.000000000  1.000000000

  Length of vectors
     0.188966114  0.188966114  0.188966114

  Shift w.r.t. Gamma in fractional coordinates (k-lattice)
     0.000000000  0.000000000  0.000000000

 
 Subroutine IBZKPT returns following result:
 ===========================================
 
 Found      1 irreducible k-points:
 
 Following reciprocal coordinates:
            Coordinates               Weight
  0.000000  0.000000  0.000000      1.000000
 
 Following cartesian coordinates:
            Coordinates               Weight
  0.000000  0.000000  0.000000      1.000000
 
 WARNING: full set of k-points will be restricted to regular points only.

 
 Subroutine IBZKPT_HF returns following result:
 ==============================================
 
 Found      1 k-points in 1st BZ
 the following      1 k-points will be used (e.g. in the exchange kernel)
 Following reciprocal coordinates:   # in IRBZ
  0.000000  0.000000  0.000000    1.00000000   1 t-inv F
 -----------------------------------------------------------------------------
|                                                                             |
|           W    W    AA    RRRRR   N    N  II  N    N   GGGG   !!!           |
|           W    W   A  A   R    R  NN   N  II  NN   N  G    G  !!!           |
|           W    W  A    A  R    R  N N  N  II  N N  N  G       !!!           |
|           W WW W  AAAAAA  RRRRR   N  N N  II  N  N N  G  GGG   !            |
|           WW  WW  A    A  R   R   N   NN  II  N   NN  G    G                |
|           W    W  A    A  R    R  N    N  II  N    N   GGGG   !!!           |
|                                                                             |
|     The number of bands has been changed from the values supplied in        |
|     the INCAR file. This is a result of running the parallel version.       |
|     The orbitals not found in the WAVECAR file will be initialized with     |
|     random numbers, which is usually adequate. For correlated               |
|     calculations, however, you should redo the groundstate calculation.     |
|     I found NBANDS = 4945. Now, NBANDS = 4992.                              |
|                                                                             |
 -----------------------------------------------------------------------------



--------------------------------------------------------------------------------------------------------




 Dimension of arrays:
   k-points           NKPTS =      1   k-points in BZ     NKDIM =      1   number of bands    NBANDS=   4992
   number of dos      NEDOS =    301   number of ions     NIONS =      2
   non local maximal  LDIM  =      9   non local SUM 2l+1 LMDIM =     29
   total plane-waves  NPLWV =  74088
   max r-space proj   IRMAX =      1   max aug-charges    IRDMAX=   6324
   dimension x,y,z NGX =    42 NGY =   42 NGZ =   42
   dimension x,y,z NGXF=    84 NGYF=   84 NGZF=   84
   support grid    NGXF=    84 NGYF=   84 NGZF=   84
   ions per type =               1   1
   NGX,Y,Z   is equivalent  to a cutoff of  13.19, 13.19, 13.19 a.u.
   NGXF,Y,Z  is equivalent  to a cutoff of  26.39, 26.39, 26.39 a.u.

 SYSTEM =  unknown system                          
 POSCAR =  LiH                                     

 Startparameter for this run:
   NWRITE =      2    write-flag & timer
   PREC   = accura    normal or accurate (medium, high low for compatibility)
   ISTART =      1    job   : 0-new  1-cont  2-samecut
   ICHARG =      0    charge: 1-file 2-atom 10-const
   ISPIN  =      1    spin polarized calculation?
   LNONCOLLINEAR =      F non collinear calculations
   LSORBIT =      F    spin-orbit coupling
   INIWAV =      1    electr: 0-lowe 1-rand  2-diag
   LASPH  =      F    aspherical Exc in radial PAW
 Electronic Relaxation 1
   ENCUT  =  600.0 eV  44.10 Ry    6.64 a.u.  10.57 10.57 10.57*2*pi/ulx,y,z
   ENINI  =  600.0     initial cutoff
   ENAUG  = 1534.7 eV  augmentation charge cutoff
   NELM   =      1;   NELMIN=  2; NELMDL=  0     # of ELM steps 
   EDIFF  = 0.1E-05   stopping-criterion for ELM
   LREAL  =      F    real-space projection
   NLSPLINE    = F    spline interpolate recip. space projectors
   LCOMPAT=      F    compatible to vasp.4.4
   GGA_COMPAT  = T    GGA compatible to vasp.4.4-vasp.4.6
   LMAXPAW     = -100 max onsite density
   LMAXMIX     =    2 max onsite mixed and CHGCAR
   VOSKOWN=      0    Vosko Wilk Nusair interpolation
   ROPT   =    0.00000   0.00000
 Ionic relaxation
   EDIFFG = 0.1E-04   stopping-criterion for IOM
   NSW    =      0    number of steps for IOM
   NBLOCK =      1;   KBLOCK =      1    inner block; outer block 
   IBRION =     -1    ionic relax: 0-MD 1-quasi-New 2-CG
   NFREE  =      0    steps in history (QN), initial steepest desc. (CG)
   ISIF   =      0    stress and relaxation
   IWAVPR =     10    prediction:  0-non 1-charg 2-wave 3-comb
   ISYM   =     -1    0-nonsym 1-usesym 2-fastsym
   LCORR  =      T    Harris-Foulkes like correction to forces

   POTIM  = 0.5000    time-step for ionic-motion
   TEIN   =    0.0    initial temperature
   TEBEG  =    0.0;   TEEND  =   0.0 temperature during run
   SMASS  =  -3.00    Nose mass-parameter (am)
   estimated Nose-frequenzy (Omega)   =  0.10E-29 period in steps = 0.13E+47 mass=  -0.640E-27a.u.
   SCALEE = 1.0000    scale energy and forces
   NPACO  =    256;   APACO  = 10.0  distance and # of slots for P.C.
   PSTRESS=    0.0 pullay stress

  Mass of Ions in am
   POMASS =   7.01  1.00
  Ionic Valenz
   ZVAL   =   3.00  1.00
  Atomic Wigner-Seitz radii
   RWIGS  =  -1.00 -1.00
  virtual crystal weights 
   VCA    =   1.00  1.00
   NELECT =       4.0000    total number of electrons
   NUPDOWN=      -1.0000    fix difference up-down

 DOS related values:
   EMIN   =  10.00;   EMAX   =-10.00  energy-range for DOS
   EFERMI =   0.00
   ISMEAR =     1;   SIGMA  =   0.00  broadening in eV -4-tet -1-fermi 0-gaus

 Electronic relaxation 2 (details)
   IALGO  =      4    algorithm
   LDIAG  =      T    sub-space diagonalisation (order eigenvalues)
   LSUBROT=      F    optimize rotation matrix (better conditioning)
   TURBO    =      0    0=normal 1=particle mesh
   IRESTART =      0    0=no restart 2=restart with 2 vectors
   NREBOOT  =      0    no. of reboots
   NMIN     =      0    reboot dimension
   EREF     =   0.00    reference energy to select bands
   IMIX   =      1    mixing-type and parameters
     AMIX     =   0.40;   BMIX     =  1.00
     AMIX_MAG =   1.60;   BMIX_MAG =  1.00
     AMIN     =   0.10
     WC   =   100.;   INIMIX=   1;  MIXPRE=   1;  MAXMIX= -45

 Intra band minimization:
   WEIMIN = 0.0000     energy-eigenvalue tresh-hold
   EBREAK =  0.50E-10  absolut break condition
   DEPER  =   0.30     relativ break condition  

   TIME   =   0.40     timestep for ELM

  volume/ion in A,a.u.               =      74.10       500.05
  Fermi-wavevector in a.u.,A,eV,Ry     =   0.491072  0.927992  3.281072  0.241152
  Thomas-Fermi vector in A             =   1.494262
 
 Write flags
   LWAVE        =      T    write WAVECAR
   LDOWNSAMPLE  =      F    k-point downsampling of WAVECAR
   LCHARG       =      T    write CHGCAR
   LVTOT        =      F    write LOCPOT, total local potential
   LVHAR        =      F    write LOCPOT, Hartree potential only
   LELF         =      F    write electronic localiz. function (ELF)
   LORBIT       =      0    0 simple, 1 ext, 2 COOP (PROOUT), +10 PAW based schemes


 Dipole corrections
   LMONO  =      F    monopole corrections only (constant potential shift)
   LDIPOL =      F    correct potential (dipole corrections)
   IDIPOL =      0    1-x, 2-y, 3-z, 4-all directions 
   EPSILON=  1.0000000 bulk dielectric constant

 Exchange correlation treatment:
   GGA     =    --    GGA type
   LEXCH   =     8    internal setting for exchange type
   LIBXC   =     F    Libxc                    
   VOSKOWN =     0    Vosko Wilk Nusair interpolation
   EXXOEP  =     0    0=HF, 1=EXX-LHF (local Hartree Fock) 2=EXX OEP
   LHFCALC =     T    Hartree Fock is set to
   LSYMGRAD=     F    symmetrize gradient (conserves proper symmetry)
   PRECFOCK=normal    Normal, Fast or Accurate (Low or Medium for compatibility)
   LRHFCALC=     F    long range Hartree Fock
   LRSCOR  =     F    long range correlation only (use DFT for short range part)
   LTHOMAS =     F    Thomas Fermi screening in HF
   LMODELHF=     F    short range full HF, long range fraction AEXX
   LFOCKACE=     T    use Adeptively-Compressed-Exchange operator
   ENCUT4O =  -1.0   cutoff for four orbital integrals eV
   LMAXFOCK=     4    L truncation for augmentation on plane wave grid
   LMAXFOCKAE=  -1    L truncation for all-electron charge restoration on plane wave grid
   NMAXFOCKAE=   1    number of basis functions for all-electron charge restoration
   LFOCKAEDFT=     F  apply the AE augmentation even for DFT
   NKREDX  =     1    reduce k-point grid by
   NKREDY  =     1    reduce k-point grid by
   NKREDZ  =     1    reduce k-point grid by
   SHIFTRED=     F    shift reduced grid of Gamma
   HFKIDENT=     F    idential grid for each k-point
   ODDONLY =     F    use only odd q-grid points
   EVENONLY=     F    use only even q-grid points
   HFALPHA =   -1.0000 decay constant for conv. correction
   MCALPHA =    0.0000 extent of test-charge in conv. correction in multipole expansion
   AEXX    =    1.0000 exact exchange contribution
   HFSCREEN=    0.0000 screening length (either q_TF or 0.3 A-1)
   HFSCREENC=   0.0000 screening length for correlation (either q_TF or 0.3 A-1)
   HFRCUT  =    0.0000 spherical cutoff for potential kernel
   HFRCUTSOFT=    0.0000 smooth spherical cutoff for potential kernel
   SLABRCUT=    0.0000 cutoff in one direction for potential kernel
   SLABRCUT_DIRECTION=   3 cutoff direction for SLABRCUT
   ERFCRAY_SCREEN=    0.0000 screening factor for erfc+rayleigh like screening for potential kernel
   RAYLEXP=    0.0000  rayleigh exponent in erfc+rayleigh like screening
   ALDAX   =    0.0000 LDA exchange part
   AGGAX   =    0.0000 GGA exchange part
   ALDAC   =    0.0000 LDA correlation
   AGGAC   =    0.0000 GGA correlation
   ENCUTFOCK=  -1.0 apply spherical cutoff to Coloumb kernel
   NBANDSGWLOW=     1    first orbital included in HF term
   NBLOCK_FOCK=    64    blocking factor in FOCK_ACC

 Linear response parameters
   LEPSILON=     F    determine dielectric tensor
   LRPA    =     F    only Hartree local field effects (RPA)
   LNABLA  =     F    use nabla operator in PAW spheres
   LVEL    =     F    velocity operator in full k-point grid
   CSHIFT  =0.1000    complex shift for real part using Kramers Kronig
   OMEGAMAX=  -1.0    maximum frequency
   DEG_THRESHOLD= 0.2000000E-02 threshold for treating states as degnerate
   RTIME   =   -0.100 relaxation time in fs
  (WPLASMAI=    0.000 imaginary part of plasma frequency in eV, 0.658/RTIME)
   DFIELD  = 0.0000000 0.0000000 0.0000000 field for delta impulse in time
 
  Optional k-point grid parameters
   LKPOINTS_OPT  =     F    use optional k-point grid
   KPOINTS_OPT_MODE=     1    mode for optional k-point grid
 
 Orbital magnetization related:
   ORBITALMAG=     F  switch on orbital magnetization
   LCHIMAG   =     F  perturbation theory with respect to B field
   DQ        =  0.001000  dq finite difference perturbation B field
   LLRAUG    =     F  two centre corrections for induced B field



--------------------------------------------------------------------------------------------------------


 Static calculation
 charge density and potential will be updated during run
 non-spin polarized calculation
 Subrot: only subspace diagonalization (rotation)
    band-by band algorithm
 perform sub-space diagonalisation
    before iterative eigenvector-optimisation
 Kerker-like  mixing scheme
 using additional bands         4990
 reciprocal scheme for non local part
 calculate Harris-corrections to forces 
   (improved forces if not selfconsistent)
 use gradient corrections 
 use of overlap-Matrix (Vanderbilt PP)
 Methfessel and Paxton  Order N= 1 SIGMA  =   0.00


--------------------------------------------------------------------------------------------------------


  energy-cutoff  :      600.00
  volume of cell :      148.20
      direct lattice vectors                 reciprocal lattice vectors
     5.291954090  0.000000000  0.000000000     0.188966114  0.000000000  0.000000000
     0.000000000  5.291954090  0.000000000     0.000000000  0.188966114  0.000000000
     0.000000000  0.000000000  5.291954090     0.000000000  0.000000000  0.188966114

  length of vectors
     5.291954090  5.291954090  5.291954090     0.188966114  0.188966114  0.188966114


 
 old parameters found on file WAVECAR:
  energy-cutoff  :      600.00
  volume of cell :      148.20
      direct lattice vectors                 reciprocal lattice vectors
     5.291954090  0.000000000  0.000000000     0.188966114  0.000000000  0.000000000
     0.000000000  5.291954090  0.000000000     0.000000000  0.188966114  0.000000000
     0.000000000  0.000000000  5.291954090     0.000000000  0.000000000  0.188966114

  length of vectors

 
 k-points in units of 2pi/SCALE and weight: Automatically generated mesh            
   0.00000000  0.00000000  0.00000000       1.000
 
 k-points in reciprocal lattice and weights: Automatically generated mesh            
   0.00000000  0.00000000  0.00000000       1.000
 
 position of ions in fractional coordinates (direct lattice) 
   0.00000000  0.00000000  0.00000000
   0.00000000  0.00000000  0.30632597
 
 position of ions in cartesian coordinates  (Angst):
   0.00000000  0.00000000  0.00000000
   0.00000000  0.00000000  1.62106295
 


--------------------------------------------------------------------------------------------------------


 use serial FFT for orbitals x direction half grid
 k-point   1 :   0.0000 0.0000 0.0000  plane waves:    2473

 maximum and minimum number of plane-waves per node :      2473     2473

 maximum number of plane-waves:      2473
 maximum index in each direction: 
   IXMAX=   10   IYMAX=   10   IZMAX=   10
   IXMIN=    0   IYMIN=  -10   IZMIN=  -10


 serial   3D FFT for wavefunctions
 parallel 3D FFT for charge:
    minimum data exchange during FFTs selected (reduces bandwidth)


 FFT grid for exact exchange (Hartree Fock) 
  NGX = 32; NGY = 32; NGZ = 32

 use serial FFT for orbitals x direction half grid
 
 Radii for the augmentation spheres in the non-local exchange
 for species   1 augmentation radius   0.885 (default was   0.708)
       energy cutoff for augmentation   2400.0
 for species   2 augmentation radius   0.735 (default was   0.588)
       energy cutoff for augmentation   2400.0
 Maximum index for augmentation-charges in exchange          619
  SETUP_FOCK is finished

 total amount of memory used by VASP MPI-rank0    40605. kBytes
=======================================================================

   base      :      30000. kBytes
   nonl-proj :       1238. kBytes
   fftplans  :        785. kBytes
   grid      :       3795. kBytes
   one-center:         40. kBytes
   HF        :        336. kBytes
   nonlr-proj:        218. kBytes
   wavefun   :       4193. kBytes
 
     INWAV:  cpu time      0.6083: real time      0.6121
 charge density for first step will be calculated from the start-wavefunctions


--------------------------------------------------------------------------------------------------------


 Maximum index for augmentation-charges          401 (set IRDMAX)


--------------------------------------------------------------------------------------------------------


 initial charge from wavefunction
    FEWALD:  cpu time      0.0003: real time      0.0003


--------------------------------------- Iteration      1(   1)  ---------------------------------------


    POTLOK:  cpu time      0.0095: real time      0.0097
    SETDIJ:  cpu time      0.0243: real time      0.0244
    EDDIAG:  cpu time     21.3159: real time     21.4789
       DOS:  cpu time      0.0009: real time      0.0009
    --------------------------------------------
      LOOP:  cpu time     21.3506: real time     21.5139

 eigenvalue-minimisations  :     0
 total energy-change (2. order) :-0.1085392E+02  ( 0.0000000E+00)
 number of electron       4.0000010 magnetization 
 augmentation part        0.8563170 magnetization 

 Free energy of the ion-electron system (eV)
  ---------------------------------------------------
  alpha Z        PSCENC =         0.51450893
  Ewald energy   TEWEN  =       -33.28140840
  -Hartree energ DENC   =       -73.88748336
  -exchange      EXHF   =        49.69359141
  -V(xc)+E(xc)   XCENC  =         0.00000000
  PAW double counting   =        97.86369973     -107.69656177
  entropy T*S    EENTRO =         0.00000000
  eigenvalues    EBANDS =      -152.11456810
  atomic energy  EATOM  =       208.05430547
  Solvation  Ediel_sol  =         0.00000000
  ---------------------------------------------------
  free energy    TOTEN  =       -10.85391609 eV

  energy without entropy =      -10.85391609  energy(sigma->0) =      -10.85391609
  exchange ACFDT corr.  =         0.00000000  see jH, gK, PRB 81, 115126


--------------------------------------------------------------------------------------------------------




 average (electrostatic) potential at core
  the test charge radii are     0.7079  0.5883
  (the norm of the test charge is              1.0000)
       1 -21.3978       2 -19.8279
 
 
 
 E-fermi :  -8.5992     XC(G=0):   0.0000     alpha+bet : -1.6643

 Fermi energy:        -8.5992422894

 k-point     1 :       0.0000    0.0000    0.0000
  band No.  band energies     occupation 
      1     -66.4785      2.00000
      2      -9.5788      2.00000
      3       1.3584      0.00000
      4       4.5355      0.00000
      5       4.5355      0.00000
      6       4.9893      0.00000
      7       5.5263      0.00000
      8       5.5639      0.00000
      9       8.2238      0.00000
     10       9.6491      0.00000
     11       9.6491      0.00000
     12      10.4023      0.00000
     13      10.6084      0.00000
     14      10.6084      0.00000
     15      10.6757      0.00000
     16      11.0729      0.00000
     17      11.0729      0.00000
     18      11.1131      0.00000
     19      11.1800      0.00000
     20      11.6626      0.00000
     21      15.1662      0.00000
     22      15.7909      0.00000
     23      15.7909      0.00000
     24      16.0469      0.00000
     25      16.0469      0.00000
     26      16.2752      0.00000
     27      16.3889      0.00000
     28      16.7870      0.00000
     29      19.1299      0.00000
     30      20.5435      0.00000
     31      20.5435      0.00000
     32      20.8349      0.00000
     33      21.1459      0.00000
     34      22.3431      0.00000
     35      24.3629      0.00000
     36      24.9526      0.00000
     37      24.9526      0.00000
     38      24.9606      0.00000
     39      26.3153      0.00000
     40      26.3402      0.00000
     41      26.3798      0.00000
     42      26.4348      0.00000
     43      26.4348      0.00000
     44      26.6188      0.00000
     45      26.6188      0.00000
     46      26.8414      0.00000
     47      27.0210      0.00000
     48      27.0210      0.00000
     49      27.1176      0.00000
     50      27.1176      0.00000
     51      27.1446      0.00000
     52      27.1706      0.00000
     53      27.2715      0.00000
     54      27.3942      0.00000
     55      27.3942      0.00000
     56      27.4353      0.00000
     57      27.5379      0.00000
     58      29.0577      0.00000
     59      30.9587      0.00000
     60      31.0994      0.00000
     61      31.0994      0.00000
     62      31.4563      0.00000
     63      31.6253      0.00000
     64      31.6253      0.00000
     65      31.7985      0.00000
     66      31.9830      0.00000
     67      32.2379      0.00000
     68      32.4057      0.00000
     69      32.4057      0.00000
     70      32.4396      0.00000
     71      32.5237      0.00000
     72      32.5237      0.00000
     73      32.5489      0.00000
     74      32.6132      0.00000
     75      32.6132      0.00000
     76      32.6397      0.00000
     77      32.6999      0.00000
     78      32.6999      0.00000
     79      32.7150      0.00000
     80      32.7294      0.00000
     81      32.7519      0.00000
     82      35.3648      0.00000
     83      40.9893      0.00000
     84      41.8829      0.00000
     85      41.8829      0.00000
     86      42.5132      0.00000
     87      42.6549      0.00000
     88      42.6593      0.00000
     89      42.6593      0.00000
     90      42.8702      0.00000
     91      42.8702      0.00000
     92      42.9846      0.00000
     93      43.0362      0.00000
     94      44.2088      0.00000
     95      46.1242      0.00000
     96      46.4846      0.00000
     97      46.4846      0.00000
     98      46.7765      0.00000
     99      47.6302      0.00000
    100      47.6307      0.00000
    101      47.6307      0.00000
    102      47.6794      0.00000
    103      47.7344      0.00000
    104      47.8502      0.00000
    105      47.8502      0.00000
    106      47.9457      0.00000
    107      47.9749      0.00000
    108      48.5130      0.00000
    109      48.5205      0.00000
    110      48.5205      0.00000
    111      48.5820      0.00000
    112      48.6223      0.00000
    113      48.6223      0.00000
    114      48.6300      0.00000
    115      48.6404      0.00000
    116      48.7337      0.00000
    117      48.7480      0.00000
    118      48.7480      0.00000
    119      48.7770      0.00000
    120      48.7795      0.00000
    121      48.7795      0.00000
    122      48.7874      0.00000
    123      48.7904      0.00000
    124      50.5046      0.00000
    125      51.9414      0.00000
    126      52.3691      0.00000
    127      52.3691      0.00000
    128      52.3915      0.00000
    129      52.8061      0.00000
    130      53.3714      0.00000
    131      53.5605      0.00000
    132      53.5605      0.00000
    133      53.5770      0.00000
    134      53.7064      0.00000
    135      53.7064      0.00000
    136      53.7543      0.00000
    137      53.7549      0.00000
    138      53.8158      0.00000
    139      53.8158      0.00000
    140      53.8458      0.00000
    141      53.8458      0.00000
    142      53.9967      0.00000
    143      54.1195      0.00000
    144      54.1195      0.00000
    145      54.1973      0.00000
    146      54.2162      0.00000
    147      54.2186      0.00000
    148      56.4522      0.00000
    149      58.0605      0.00000
    150      58.2908      0.00000
    151      58.4532      0.00000
    152      58.4532      0.00000
    153      58.8473      0.00000
    154      58.8473      0.00000
    155      58.8701      0.00000
    156      58.9761      0.00000
    157      59.1036      0.00000
    158      59.1136      0.00000
    159      59.1136      0.00000
    160      59.1355      0.00000
    161      59.1674      0.00000
    162      59.1674      0.00000
    163      59.2618      0.00000
    164      59.2618      0.00000
    165      59.2918      0.00000
    166      59.3110      0.00000
    167      59.3826      0.00000
    168      59.3919      0.00000
    169      59.4147      0.00000
    170      59.4147      0.00000
    171      59.4679      0.00000
    172      62.0395      0.00000
    173      63.7881      0.00000
    174      64.0644      0.00000
    175      64.0644      0.00000
    176      64.3002      0.00000
    177      64.3002      0.00000
    178      64.3746      0.00000
    179      64.4581      0.00000
    180      65.4979      0.00000
    181      68.0298      0.00000
    182      68.1807      0.00000
    183      68.1807      0.00000
    184      68.9800      0.00000
    185      69.1087      0.00000
    186      69.1087      0.00000
    187      69.1162      0.00000
    188      69.3415      0.00000
    189      69.3415      0.00000
    190      69.3515      0.00000
    191      69.3556      0.00000
    192      69.4469      0.00000
    193      69.9087      0.00000
    194      70.0115      0.00000
    195      70.0209      0.00000
    196      70.0209      0.00000
    197      70.0299      0.00000
    198      70.0299      0.00000
    199      70.0483      0.00000
    200      70.1241      0.00000
    201      70.1241      0.00000
    202      70.1908      0.00000
    203      70.2268      0.00000
    204      71.9565      0.00000
    205      73.5628      0.00000
    206      73.6099      0.00000
    207      73.6397      0.00000
    208      73.6397      0.00000
    209      74.3095      0.00000
    210      74.3095      0.00000
    211      74.3786      0.00000
    212      74.6648      0.00000
    213      74.6648      0.00000
    214      74.6787      0.00000
    215      74.7260      0.00000
    216      74.7716      0.00000
    217      74.9304      0.00000
    218      74.9509      0.00000
    219      74.9509      0.00000
    220      75.0739      0.00000
    221      75.0739      0.00000
    222      75.0868      0.00000
    223      75.1169      0.00000
    224      75.1169      0.00000
    225      75.1516      0.00000
    226      75.1738      0.00000
    227      75.2097      0.00000
    228      75.2400      0.00000
    229      75.4384      0.00000
    230      75.4384      0.00000
    231      75.4476      0.00000
    232      75.5331      0.00000
    233      75.5557      0.00000
    234      75.5557      0.00000
    235      75.5884      0.00000
    236      75.6022      0.00000
    237      75.6022      0.00000
    238      75.6286      0.00000
    239      75.6317      0.00000
    240      75.6644      0.00000
    241      75.6644      0.00000
    242      75.6905      0.00000
    243      75.6923      0.00000
    244      75.7372      0.00000
    245      75.8000      0.00000
    246      75.8389      0.00000
    247      75.8389      0.00000
    248      75.8642      0.00000
    249      75.8642      0.00000
    250      75.8802      0.00000
    251      75.9014      0.00000
    252      80.6336      0.00000
    253      84.4746      0.00000
    254      84.8551      0.00000
    255      84.8551      0.00000
    256      85.2115      0.00000
    257      85.2539      0.00000
    258      86.7162      0.00000
    259      88.6423      0.00000
    260      88.9462      0.00000
    261      88.9462      0.00000
    262      89.3780      0.00000
    263      89.8443      0.00000
    264      90.1351      0.00000
    265      90.2746      0.00000
    266      90.2746      0.00000
    267      90.3122      0.00000
    268      90.5823      0.00000
    269      90.6124      0.00000
    270      90.6124      0.00000
    271      90.6130      0.00000
    272      90.9648      0.00000
    273      91.0446      0.00000
    274      91.0446      0.00000
    275      91.2718      0.00000
    276      91.2739      0.00000
    277      91.2739      0.00000
    278      91.2798      0.00000
    279      91.2989      0.00000
    280      91.3785      0.00000
    281      91.3785      0.00000
    282      91.4216      0.00000
    283      91.4216      0.00000
    284      91.4543      0.00000
    285      91.5542      0.00000
    286      91.5542      0.00000
    287      91.5776      0.00000
    288      91.5997      0.00000
    289      91.6242      0.00000
    290      91.6484      0.00000
    291      91.6484      0.00000
    292      91.6745      0.00000
    293      91.6807      0.00000
    294      91.6813      0.00000
    295      91.6831      0.00000
    296      91.6831      0.00000
    297      91.6945      0.00000
    298      91.6945      0.00000
    299      91.7046      0.00000
    300      91.8004      0.00000
    301      91.8034      0.00000
    302      91.8121      0.00000
    303      91.8121      0.00000
    304      91.8196      0.00000
    305      91.8237      0.00000
    306      94.2471      0.00000
    307      95.3906      0.00000
    308      95.6477      0.00000
    309      95.6477      0.00000
    310      96.0513      0.00000
    311      96.2058      0.00000
    312      96.2070      0.00000
    313      96.2483      0.00000
    314      96.2483      0.00000
    315      96.3266      0.00000
    316      96.4692      0.00000
    317      96.4692      0.00000
    318      96.4825      0.00000
    319      96.4825      0.00000
    320      96.5053      0.00000
    321      96.5257      0.00000
    322      96.5662      0.00000
    323      96.6505      0.00000
    324      96.7279      0.00000
    325      96.7290      0.00000
    326      96.7290      0.00000
    327      96.7741      0.00000
    328      96.8190      0.00000
    329      96.8190      0.00000
    330      96.8254      0.00000
    331      96.8254      0.00000
    332      96.8724      0.00000
    333      96.8891      0.00000
    334      96.8891      0.00000
    335      96.8898      0.00000
    336      96.9607      0.00000
    337      96.9957      0.00000
    338      97.0043      0.00000
    339      97.0113      0.00000
    340      97.0113      0.00000
    341      97.0385      0.00000
    342     100.1121      0.00000
    343     101.2391      0.00000
    344     101.4238      0.00000
    345     101.4238      0.00000
    346     101.6414      0.00000
    347     101.7012      0.00000
    348     101.7012      0.00000
    349     101.8847      0.00000
    350     101.9287      0.00000
    351     101.9287      0.00000
    352     101.9449      0.00000
    353     101.9765      0.00000
    354     102.0694      0.00000
    355     102.1040      0.00000
    356     102.1247      0.00000
    357     102.1247      0.00000
    358     102.1737      0.00000
    359     102.2307      0.00000
    360     102.2677      0.00000
    361     102.2677      0.00000
    362     102.2758      0.00000
    363     102.2758      0.00000
    364     102.3173      0.00000
    365     102.3184      0.00000
    366     104.6629      0.00000
    367     106.1204      0.00000
    368     106.5461      0.00000
    369     106.5461      0.00000
    370     106.6526      0.00000
    371     106.9882      0.00000
    372     107.0290      0.00000
    373     107.0534      0.00000
    374     107.0937      0.00000
    375     107.0937      0.00000
    376     107.2270      0.00000
    377     107.2270      0.00000
    378     107.2858      0.00000
    379     107.2858      0.00000
    380     107.2868      0.00000
    381     107.3232      0.00000
    382     107.3572      0.00000
    383     107.3572      0.00000
    384     107.3742      0.00000
    385     107.4316      0.00000
    386     107.4483      0.00000
    387     107.4483      0.00000
    388     107.5605      0.00000
    389     107.5648      0.00000
    390     109.8566      0.00000
    391     111.2290      0.00000
    392     111.4528      0.00000
    393     111.4528      0.00000
    394     111.9350      0.00000
    395     112.1537      0.00000
    396     112.1537      0.00000
    397     112.1954      0.00000
    398     112.2325      0.00000
    399     112.2822      0.00000
    400     112.4316      0.00000
    401     112.4316      0.00000
    402     112.5182      0.00000
    403     112.5182      0.00000
    404     112.5272      0.00000
    405     112.5506      0.00000
    406     112.5506      0.00000
    407     112.5683      0.00000
    408     112.6292      0.00000
    409     112.6569      0.00000
    410     112.7149      0.00000
    411     112.7149      0.00000
    412     112.7548      0.00000
    413     112.7782      0.00000
    414     112.7784      0.00000
    415     112.9271      0.00000
    416     112.9271      0.00000
    417     113.0642      0.00000
    418     113.0817      0.00000
    419     113.0949      0.00000
    420     113.1230      0.00000
    421     113.1237      0.00000
    422     113.1237      0.00000
    423     113.1720      0.00000
    424     113.1958      0.00000
    425     113.2045      0.00000
    426     113.2045      0.00000
    427     113.2059      0.00000
    428     113.2059      0.00000
    429     113.2478      0.00000
    430     113.2629      0.00000
    431     113.2644      0.00000
    432     113.2702      0.00000
    433     113.2702      0.00000
    434     113.2943      0.00000
    435     113.2943      0.00000
    436     113.2979      0.00000
    437     113.3280      0.00000
    438     116.0370      0.00000
    439     116.8523      0.00000
    440     117.0687      0.00000
    441     117.0687      0.00000
    442     117.2532      0.00000
    443     117.2532      0.00000
    444     117.3344      0.00000
    445     117.4165      0.00000
    446     118.2234      0.00000
    447     118.3886      0.00000
    448     118.3886      0.00000
    449     118.4406      0.00000
    450     118.4637      0.00000
    451     118.4848      0.00000
    452     118.4848      0.00000
    453     118.4970      0.00000
    454     118.5075      0.00000
    455     118.5264      0.00000
    456     118.5264      0.00000
    457     118.5280      0.00000
    458     118.5373      0.00000
    459     118.5373      0.00000
    460     118.5451      0.00000
    461     118.5459      0.00000
    462     123.5178      0.00000
    463     127.7490      0.00000
    464     127.9255      0.00000
    465     127.9255      0.00000
    466     128.2993      0.00000
    467     128.5873      0.00000
    468     128.6003      0.00000
    469     128.6130      0.00000
    470     128.6130      0.00000
    471     128.8019      0.00000
    472     128.8019      0.00000
    473     128.8022      0.00000
    474     128.8282      0.00000
    475     128.8571      0.00000
    476     128.8571      0.00000
    477     128.9564      0.00000
    478     128.9656      0.00000
    479     128.9656      0.00000
    480     128.9659      0.00000
    481     128.9732      0.00000
    482     129.0186      0.00000
    483     129.0186      0.00000
    484     129.0209      0.00000
    485     129.0483      0.00000
    486     130.2712      0.00000
    487     132.0592      0.00000
    488     132.0592      0.00000
    489     132.4502      0.00000
    490     132.7389      0.00000
    491     133.1545      0.00000
    492     133.2654      0.00000
    493     133.5065      0.00000
    494     133.5065      0.00000
    495     133.5975      0.00000
    496     133.5975      0.00000
    497     133.6162      0.00000
    498     133.6696      0.00000
    499     133.7000      0.00000
    500     133.8634      0.00000
    501     133.8634      0.00000
    502     133.9059      0.00000
    503     133.9068      0.00000
    504     134.4263      0.00000
    505     134.4907      0.00000
    506     134.4944      0.00000
    507     134.4944      0.00000
    508     134.5018      0.00000
    509     134.5055      0.00000
    510     134.5350      0.00000
    511     134.5350      0.00000
    512     134.5567      0.00000
    513     134.5567      0.00000
    514     134.6027      0.00000
    515     134.6090      0.00000
    516     136.2823      0.00000
    517     137.4877      0.00000
    518     137.7333      0.00000
    519     137.7589      0.00000
    520     137.7589      0.00000
    521     138.3133      0.00000
    522     138.3340      0.00000
    523     138.6874      0.00000
    524     138.6874      0.00000
    525     138.8192      0.00000
    526     138.9853      0.00000
    527     139.0341      0.00000
    528     139.0341      0.00000
    529     139.1012      0.00000
    530     139.1012      0.00000
    531     139.1369      0.00000
    532     139.1373      0.00000
    533     139.2651      0.00000
    534     139.2849      0.00000
    535     139.3104      0.00000
    536     139.3104      0.00000
    537     139.3953      0.00000
    538     139.5040      0.00000
    539     139.5582      0.00000
    540     139.5663      0.00000
    541     139.5663      0.00000
    542     139.5666      0.00000
    543     139.5702      0.00000
    544     139.5702      0.00000
    545     139.6272      0.00000
    546     139.6640      0.00000
    547     139.6640      0.00000
    548     139.6693      0.00000
    549     139.6697      0.00000
    550     139.6921      0.00000
    551     139.6994      0.00000
    552     139.6994      0.00000
    553     139.7107      0.00000
    554     139.7107      0.00000
    555     139.7248      0.00000
    556     139.7498      0.00000
    557     139.7690      0.00000
    558     139.7690      0.00000
    559     139.7973      0.00000
    560     139.9059      0.00000
    561     139.9059      0.00000
    562     139.9169      0.00000
    563     139.9214      0.00000
    564     139.9214      0.00000
    565     139.9425      0.00000
    566     140.0106      0.00000
    567     140.0172      0.00000
    568     140.0172      0.00000
    569     140.0242      0.00000
    570     140.0771      0.00000
    571     140.0901      0.00000
    572     140.0901      0.00000
    573     140.0991      0.00000
    574     140.1041      0.00000
    575     140.1261      0.00000
    576     140.1331      0.00000
    577     140.1477      0.00000
    578     140.1477      0.00000
    579     140.1509      0.00000
    580     140.1510      0.00000
    581     140.1722      0.00000
    582     140.1724      0.00000
    583     140.1727      0.00000
    584     140.1727      0.00000
    585     140.1769      0.00000
    586     140.1796      0.00000
    587     140.1888      0.00000
    588     143.5528      0.00000
    589     144.2272      0.00000
    590     144.5067      0.00000
    591     144.5067      0.00000
    592     144.5158      0.00000
    593     144.6680      0.00000
    594     144.7270      0.00000
    595     144.8051      0.00000
    596     144.8051      0.00000
    597     144.8452      0.00000
    598     144.8720      0.00000
    599     144.8720      0.00000
    600     144.8769      0.00000
    601     144.9252      0.00000
    602     144.9651      0.00000
    603     144.9651      0.00000
    604     144.9706      0.00000
    605     145.0018      0.00000
    606     145.1114      0.00000
    607     145.1114      0.00000
    608     145.1152      0.00000
    609     145.1152      0.00000
    610     145.1861      0.00000
    611     145.1928      0.00000
    612     145.1928      0.00000
    613     145.2038      0.00000
    614     145.3367      0.00000
    615     145.3393      0.00000
    616     145.3562      0.00000
    617     145.3643      0.00000
    618     145.3643      0.00000
    619     145.3744      0.00000
    620     150.0991      0.00000
    621     153.2682      0.00000
    622     153.3511      0.00000
    623     153.3511      0.00000
    624     153.9739      0.00000
    625     154.3682      0.00000
    626     154.3682      0.00000
    627     154.3862      0.00000
    628     154.7261      0.00000
    629     154.8000      0.00000
    630     154.9529      0.00000
    631     155.0450      0.00000
    632     155.0450      0.00000
    633     155.1490      0.00000
    634     155.1765      0.00000
    635     155.1765      0.00000
    636     155.2785      0.00000
    637     155.2785      0.00000
    638     155.2857      0.00000
    639     155.3392      0.00000
    640     155.3968      0.00000
    641     155.4308      0.00000
    642     155.4540      0.00000
    643     155.4672      0.00000
    644     155.4672      0.00000
    645     155.5766      0.00000
    646     155.5880      0.00000
    647     155.6264      0.00000
    648     155.6264      0.00000
    649     155.6477      0.00000
    650     155.6488      0.00000
    651     155.6488      0.00000
    652     155.6794      0.00000
    653     155.6801      0.00000
    654     155.6802      0.00000
    655     155.7061      0.00000
    656     155.7156      0.00000
    657     155.7180      0.00000
    658     155.7180      0.00000
    659     155.7290      0.00000
    660     155.7509      0.00000
    661     155.7509      0.00000
    662     155.7797      0.00000
    663     155.7980      0.00000
    664     155.8044      0.00000
    665     155.8044      0.00000
    666     155.8882      0.00000
    667     155.8919      0.00000
    668     156.0432      0.00000
    669     156.0751      0.00000
    670     156.0751      0.00000
    671     156.0898      0.00000
    672     156.0913      0.00000
    673     156.1136      0.00000
    674     156.1136      0.00000
    675     156.1259      0.00000
    676     156.1653      0.00000
    677     156.1678      0.00000
    678     156.1678      0.00000
    679     156.1703      0.00000
    680     156.1763      0.00000
    681     156.1796      0.00000
    682     156.1796      0.00000
    683     156.1833      0.00000
    684     156.3767      0.00000
    685     156.3864      0.00000
    686     156.3903      0.00000
    687     156.3903      0.00000
    688     156.3989      0.00000
    689     156.3989      0.00000
    690     156.4038      0.00000
    691     156.4104      0.00000
    692     159.2439      0.00000
    693     159.9515      0.00000
    694     160.1311      0.00000
    695     160.1311      0.00000
    696     160.3630      0.00000
    697     160.4354      0.00000
    698     160.6710      0.00000
    699     160.6710      0.00000
    700     160.7649      0.00000
    701     160.7649      0.00000
    702     160.7759      0.00000
    703     160.7857      0.00000
    704     160.8183      0.00000
    705     160.8566      0.00000
    706     160.8566      0.00000
    707     160.8831      0.00000
    708     160.8831      0.00000
    709     160.9308      0.00000
    710     161.0331      0.00000
    711     161.0701      0.00000
    712     161.0701      0.00000
    713     161.0977      0.00000
    714     161.1090      0.00000
    715     161.1108      0.00000
    716     161.1159      0.00000
    717     161.2912      0.00000
    718     161.2912      0.00000
    719     161.3878      0.00000
    720     161.4335      0.00000
    721     161.4443      0.00000
    722     161.4600      0.00000
    723     161.4805      0.00000
    724     161.4805      0.00000
    725     161.5072      0.00000
    726     161.5489      0.00000
    727     161.5489      0.00000
    728     161.5497      0.00000
    729     161.5497      0.00000
    730     161.5660      0.00000
    731     161.5989      0.00000
    732     161.5989      0.00000
    733     161.6072      0.00000
    734     161.6078      0.00000
    735     161.6131      0.00000
    736     161.6204      0.00000
    737     161.6262      0.00000
    738     161.6262      0.00000
    739     161.6406      0.00000
    740     168.6385      0.00000
    741     171.0533      0.00000
    742     171.1035      0.00000
    743     171.1035      0.00000
    744     171.4062      0.00000
    745     171.5308      0.00000
    746     171.5363      0.00000
    747     171.5363      0.00000
    748     171.5835      0.00000
    749     171.5835      0.00000
    750     171.6537      0.00000
    751     171.6734      0.00000
    752     173.4960      0.00000
    753     175.6981      0.00000
    754     175.7554      0.00000
    755     175.7554      0.00000
    756     176.3460      0.00000
    757     176.5291      0.00000
    758     176.5291      0.00000
    759     176.6041      0.00000
    760     176.7941      0.00000
    761     176.8230      0.00000
    762     176.8995      0.00000
    763     176.9027      0.00000
    764     176.9027      0.00000
    765     176.9896      0.00000
    766     177.0371      0.00000
    767     177.0802      0.00000
    768     177.0802      0.00000
    769     177.1275      0.00000
    770     177.1275      0.00000
    771     177.1481      0.00000
    772     177.2145      0.00000
    773     177.2145      0.00000
    774     177.2225      0.00000
    775     177.2372      0.00000
    776     177.2505      0.00000
    777     177.2517      0.00000
    778     177.2517      0.00000
    779     177.2743      0.00000
    780     177.2797      0.00000
    781     177.2797      0.00000
    782     177.2894      0.00000
    783     177.2966      0.00000
    784     177.3021      0.00000
    785     177.3288      0.00000
    786     177.3362      0.00000
    787     177.3362      0.00000
    788     177.4182      0.00000
    789     177.4240      0.00000
    790     177.4240      0.00000
    791     177.4313      0.00000
    792     177.4811      0.00000
    793     177.4811      0.00000
    794     177.4811      0.00000
    795     177.4876      0.00000
    796     177.4876      0.00000
    797     177.4898      0.00000
    798     177.4941      0.00000
    799     177.4970      0.00000
    800     179.5944      0.00000
    801     180.9428      0.00000
    802     180.9428      0.00000
    803     181.0879      0.00000
    804     181.5053      0.00000
    805     181.5908      0.00000
    806     181.5908      0.00000
    807     181.6773      0.00000
    808     181.8046      0.00000
    809     182.0736      0.00000
    810     182.2027      0.00000
    811     182.2027      0.00000
    812     182.2270      0.00000
    813     182.2629      0.00000
    814     182.3171      0.00000
    815     182.3254      0.00000
    816     182.3254      0.00000
    817     182.3861      0.00000
    818     182.3861      0.00000
    819     182.4065      0.00000
    820     182.4730      0.00000
    821     182.4730      0.00000
    822     182.4886      0.00000
    823     182.5040      0.00000
    824     182.5366      0.00000
    825     182.5400      0.00000
    826     182.5566      0.00000
    827     182.5566      0.00000
    828     182.5680      0.00000
    829     182.5680      0.00000
    830     182.6183      0.00000
    831     182.6221      0.00000
    832     182.9145      0.00000
    833     182.9374      0.00000
    834     182.9374      0.00000
    835     182.9432      0.00000
    836     182.9447      0.00000
    837     182.9506      0.00000
    838     182.9578      0.00000
    839     182.9578      0.00000
    840     182.9854      0.00000
    841     182.9899      0.00000
    842     182.9924      0.00000
    843     182.9924      0.00000
    844     182.9954      0.00000
    845     182.9954      0.00000
    846     182.9962      0.00000
    847     183.0006      0.00000
    848     185.9508      0.00000
    849     186.9466      0.00000
    850     187.2194      0.00000
    851     187.2194      0.00000
    852     187.3020      0.00000
    853     187.5786      0.00000
    854     187.5786      0.00000
    855     187.6010      0.00000
    856     187.6368      0.00000
    857     187.6778      0.00000
    858     187.6778      0.00000
    859     187.7156      0.00000
    860     187.7292      0.00000
    861     187.7294      0.00000
    862     187.7294      0.00000
    863     187.7657      0.00000
    864     187.8766      0.00000
    865     187.8766      0.00000
    866     187.9735      0.00000
    867     187.9770      0.00000
    868     187.9843      0.00000
    869     187.9843      0.00000
    870     187.9904      0.00000
    871     188.0227      0.00000
    872     188.0767      0.00000
    873     188.0767      0.00000
    874     188.0819      0.00000
    875     188.0841      0.00000
    876     188.1005      0.00000
    877     188.1213      0.00000
    878     188.1859      0.00000
    879     188.1859      0.00000
    880     188.1938      0.00000
    881     188.1939      0.00000
    882     188.1968      0.00000
    883     188.2097      0.00000
    884     188.2128      0.00000
    885     188.2250      0.00000
    886     188.2298      0.00000
    887     188.2298      0.00000
    888     188.2389      0.00000
    889     188.2445      0.00000
    890     188.2445      0.00000
    891     188.2636      0.00000
    892     188.2657      0.00000
    893     188.2657      0.00000
    894     188.2807      0.00000
    895     188.2893      0.00000
    896     191.2480      0.00000
    897     192.2380      0.00000
    898     192.3402      0.00000
    899     192.3402      0.00000
    900     192.4995      0.00000
    901     192.5936      0.00000
    902     192.7568      0.00000
    903     192.9816      0.00000
    904     192.9816      0.00000
    905     192.9868      0.00000
    906     193.0826      0.00000
    907     193.0826      0.00000
    908     193.1371      0.00000
    909     193.1660      0.00000
    910     193.2596      0.00000
    911     193.2939      0.00000
    912     193.2939      0.00000
    913     193.3620      0.00000
    914     193.3641      0.00000
    915     193.3799      0.00000
    916     193.3799      0.00000
    917     193.3957      0.00000
    918     193.4030      0.00000
    919     193.4221      0.00000
    920     193.4659      0.00000
    921     193.4659      0.00000
    922     193.4722      0.00000
    923     193.4722      0.00000
    924     193.4985      0.00000
    925     193.4987      0.00000
    926     196.2241      0.00000
    927     196.7652      0.00000
    928     197.2222      0.00000
    929     197.2222      0.00000
    930     197.2237      0.00000
    931     197.4628      0.00000
    932     198.6012      0.00000
    933     198.6774      0.00000
    934     198.6774      0.00000
    935     198.6809      0.00000
    936     198.7005      0.00000
    937     198.7005      0.00000
    938     198.7124      0.00000
    939     198.7463      0.00000
    940     198.8492      0.00000
    941     198.8492      0.00000
    942     198.8596      0.00000
    943     198.8596      0.00000
    944     199.0998      0.00000
    945     199.1546      0.00000
    946     199.1546      0.00000
    947     199.2027      0.00000
    948     199.2477      0.00000
    949     199.2480      0.00000
    950     200.8825      0.00000
    951     202.3359      0.00000
    952     202.5893      0.00000
    953     202.5893      0.00000
    954     203.2199      0.00000
    955     203.2199      0.00000
    956     203.2574      0.00000
    957     203.2943      0.00000
    958     203.3809      0.00000
    959     203.4118      0.00000
    960     203.4221      0.00000
    961     203.5039      0.00000
    962     203.5418      0.00000
    963     203.5418      0.00000
    964     203.6443      0.00000
    965     203.6443      0.00000
    966     203.6644      0.00000
    967     203.7358      0.00000
    968     203.7585      0.00000
    969     203.7585      0.00000
    970     203.8038      0.00000
    971     203.8038      0.00000
    972     203.8107      0.00000
    973     203.8185      0.00000
    974     203.8299      0.00000
    975     203.8538      0.00000
    976     203.8538      0.00000
    977     203.8597      0.00000
    978     203.9250      0.00000
    979     204.0127      0.00000
    980     204.0346      0.00000
    981     204.0486      0.00000
    982     204.0486      0.00000
    983     204.0894      0.00000
    984     204.2231      0.00000
    985     204.2231      0.00000
    986     204.2326      0.00000
    987     204.2326      0.00000
    988     204.3021      0.00000
    989     204.3061      0.00000
    990     204.3061      0.00000
    991     204.3142      0.00000
    992     204.3439      0.00000
    993     204.3439      0.00000
    994     204.3446      0.00000
    995     204.3740      0.00000
    996     204.3809      0.00000
    997     204.4230      0.00000
    998     204.4230      0.00000
    999     204.4305      0.00000
   1000     204.4337      0.00000
   1001     204.4359      0.00000
   1002     204.4491      0.00000
   1003     204.4499      0.00000
   1004     204.4553      0.00000
   1005     204.4605      0.00000
   1006     204.4605      0.00000
   1007     204.4755      0.00000
   1008     204.4755      0.00000
   1009     204.4806      0.00000
   1010     204.4806      0.00000
   1011     204.4950      0.00000
   1012     204.4960      0.00000
   1013     204.5051      0.00000
   1014     204.5080      0.00000
   1015     204.5103      0.00000
   1016     204.5291      0.00000
   1017     204.5291      0.00000
   1018     204.5380      0.00000
   1019     204.5380      0.00000
   1020     204.5435      0.00000
   1021     204.5506      0.00000
   1022     211.0913      0.00000
   1023     213.4811      0.00000
   1024     213.7468      0.00000
   1025     213.7468      0.00000
   1026     214.0183      0.00000
   1027     214.2334      0.00000
   1028     214.4277      0.00000
   1029     214.4840      0.00000
   1030     214.4840      0.00000
   1031     214.4914      0.00000
   1032     214.5558      0.00000
   1033     214.5558      0.00000
   1034     214.6415      0.00000
   1035     214.6434      0.00000
   1036     214.6734      0.00000
   1037     214.6734      0.00000
   1038     214.7257      0.00000
   1039     214.7334      0.00000
   1040     214.7334      0.00000
   1041     214.8087      0.00000
   1042     214.8203      0.00000
   1043     214.8203      0.00000
   1044     214.9689      0.00000
   1045     214.9736      0.00000
   1046     216.2438      0.00000
   1047     217.5832      0.00000
   1048     217.7650      0.00000
   1049     217.7650      0.00000
   1050     218.5326      0.00000
   1051     218.6395      0.00000
   1052     218.6591      0.00000
   1053     218.6591      0.00000
   1054     219.0286      0.00000
   1055     219.0624      0.00000
   1056     219.0624      0.00000
   1057     219.0814      0.00000
   1058     219.1476      0.00000
   1059     219.2097      0.00000
   1060     219.3052      0.00000
   1061     219.3702      0.00000
   1062     219.3702      0.00000
   1063     219.5003      0.00000
   1064     219.5843      0.00000
   1065     219.6042      0.00000
   1066     219.6042      0.00000
   1067     219.7215      0.00000
   1068     219.7247      0.00000
   1069     219.7247      0.00000
   1070     219.7910      0.00000
   1071     219.8291      0.00000
   1072     219.8291      0.00000
   1073     219.8705      0.00000
   1074     219.9301      0.00000
   1075     219.9301      0.00000
   1076     219.9375      0.00000
   1077     219.9375      0.00000
   1078     219.9634      0.00000
   1079     219.9737      0.00000
   1080     219.9907      0.00000
   1081     219.9909      0.00000
   1082     220.0059      0.00000
   1083     220.0059      0.00000
   1084     220.1435      0.00000
   1085     220.1492      0.00000
   1086     220.1492      0.00000
   1087     220.1563      0.00000
   1088     220.1860      0.00000
   1089     220.1882      0.00000
   1090     220.1900      0.00000
   1091     220.2833      0.00000
   1092     220.2833      0.00000
   1093     220.3563      0.00000
   1094     220.3925      0.00000
   1095     220.4279      0.00000
   1096     220.4279      0.00000
   1097     220.4379      0.00000
   1098     220.4399      0.00000
   1099     220.4592      0.00000
   1100     220.4772      0.00000
   1101     220.4772      0.00000
   1102     220.5226      0.00000
   1103     220.5236      0.00000
   1104     220.5286      0.00000
   1105     220.5297      0.00000
   1106     220.5297      0.00000
   1107     220.5444      0.00000
   1108     220.5584      0.00000
   1109     220.5599      0.00000
   1110     220.5599      0.00000
   1111     220.5639      0.00000
   1112     220.5639      0.00000
   1113     220.5663      0.00000
   1114     220.5681      0.00000
   1115     220.5775      0.00000
   1116     220.5786      0.00000
   1117     220.5830      0.00000
   1118     220.5830      0.00000
   1119     220.6011      0.00000
   1120     220.6022      0.00000
   1121     220.6022      0.00000
   1122     220.6142      0.00000
   1123     220.6142      0.00000
   1124     220.6208      0.00000
   1125     220.6220      0.00000
   1126     220.6239      0.00000
   1127     220.6359      0.00000
   1128     220.6454      0.00000
   1129     220.6454      0.00000
   1130     220.6471      0.00000
   1131     220.6471      0.00000
   1132     220.6894      0.00000
   1133     220.6895      0.00000
   1134     220.6962      0.00000
   1135     220.6962      0.00000
   1136     220.6992      0.00000
   1137     220.7011      0.00000
   1138     220.7155      0.00000
   1139     220.7164      0.00000
   1140     220.7164      0.00000
   1141     220.7195      0.00000
   1142     224.0262      0.00000
   1143     224.5405      0.00000
   1144     224.6749      0.00000
   1145     224.6749      0.00000
   1146     224.8751      0.00000
   1147     224.8751      0.00000
   1148     224.9395      0.00000
   1149     225.0301      0.00000
   1150     225.0335      0.00000
   1151     225.0335      0.00000
   1152     225.0644      0.00000
   1153     225.1437      0.00000
   1154     225.1829      0.00000
   1155     225.3124      0.00000
   1156     225.3124      0.00000
   1157     225.3463      0.00000
   1158     225.4865      0.00000
   1159     225.4895      0.00000
   1160     225.4947      0.00000
   1161     225.4947      0.00000
   1162     225.5059      0.00000
   1163     225.5059      0.00000
   1164     225.5258      0.00000
   1165     225.5260      0.00000
   1166     225.6620      0.00000
   1167     225.6670      0.00000
   1168     225.7480      0.00000
   1169     225.7480      0.00000
   1170     225.8128      0.00000
   1171     225.8152      0.00000
   1172     225.8152      0.00000
   1173     225.8319      0.00000
   1174     225.9314      0.00000
   1175     225.9314      0.00000
   1176     225.9345      0.00000
   1177     225.9387      0.00000
   1178     226.0616      0.00000
   1179     226.0676      0.00000
   1180     226.0676      0.00000
   1181     226.0676      0.00000
   1182     226.0703      0.00000
   1183     226.0757      0.00000
   1184     226.0795      0.00000
   1185     226.0795      0.00000
   1186     226.0852      0.00000
   1187     226.0852      0.00000
   1188     226.0930      0.00000
   1189     226.0972      0.00000
   1190     229.6511      0.00000
   1191     230.2976      0.00000
   1192     230.4313      0.00000
   1193     230.4313      0.00000
   1194     230.6157      0.00000
   1195     230.6157      0.00000
   1196     230.6316      0.00000
   1197     230.6583      0.00000
   1198     230.7995      0.00000
   1199     230.8597      0.00000
   1200     230.9019      0.00000
   1201     230.9019      0.00000
   1202     230.9653      0.00000
   1203     230.9735      0.00000
   1204     230.9735      0.00000
   1205     230.9845      0.00000
   1206     230.9945      0.00000
   1207     231.0003      0.00000
   1208     231.0003      0.00000
   1209     231.0007      0.00000
   1210     231.0460      0.00000
   1211     231.0460      0.00000
   1212     231.0503      0.00000
   1213     231.0570      0.00000
   1214     234.5718      0.00000
   1215     235.5203      0.00000
   1216     235.7553      0.00000
   1217     235.7553      0.00000
   1218     235.8597      0.00000
   1219     236.1008      0.00000
   1220     236.1357      0.00000
   1221     236.1357      0.00000
   1222     236.1800      0.00000
   1223     236.2205      0.00000
   1224     236.2205      0.00000
   1225     236.2230      0.00000
   1226     236.2474      0.00000
   1227     236.2477      0.00000
   1228     236.2477      0.00000
   1229     236.3090      0.00000
   1230     236.3090      0.00000
   1231     236.3165      0.00000
   1232     236.3428      0.00000
   1233     236.3795      0.00000
   1234     236.3795      0.00000
   1235     236.3826      0.00000
   1236     236.3917      0.00000
   1237     236.3952      0.00000
   1238     238.6077      0.00000
   1239     240.1205      0.00000
   1240     240.1205      0.00000
   1241     240.1692      0.00000
   1242     240.5340      0.00000
   1243     240.7572      0.00000
   1244     240.7924      0.00000
   1245     240.7924      0.00000
   1246     240.9508      0.00000
   1247     240.9508      0.00000
   1248     240.9957      0.00000
   1249     241.0309      0.00000
   1250     241.0314      0.00000
   1251     241.0429      0.00000
   1252     241.0429      0.00000
   1253     241.0458      0.00000
   1254     241.1684      0.00000
   1255     241.3304      0.00000
   1256     241.3304      0.00000
   1257     241.3474      0.00000
   1258     241.3750      0.00000
   1259     241.4089      0.00000
   1260     241.4089      0.00000
   1261     241.4304      0.00000
   1262     241.4500      0.00000
   1263     241.4556      0.00000
   1264     241.4669      0.00000
   1265     241.4669      0.00000
   1266     241.4754      0.00000
   1267     241.5009      0.00000
   1268     241.5112      0.00000
   1269     241.5112      0.00000
   1270     241.5555      0.00000
   1271     241.5924      0.00000
   1272     241.5924      0.00000
   1273     241.6040      0.00000
   1274     241.6083      0.00000
   1275     241.6135      0.00000
   1276     241.6252      0.00000
   1277     241.6252      0.00000
   1278     241.6471      0.00000
   1279     241.6505      0.00000
   1280     241.6604      0.00000
   1281     241.6604      0.00000
   1282     241.6827      0.00000
   1283     241.6827      0.00000
   1284     241.7031      0.00000
   1285     241.7115      0.00000
   1286     241.9781      0.00000
   1287     241.9975      0.00000
   1288     242.0049      0.00000
   1289     242.0049      0.00000
   1290     242.0163      0.00000
   1291     242.0393      0.00000
   1292     242.0461      0.00000
   1293     242.0461      0.00000
   1294     242.0744      0.00000
   1295     242.0747      0.00000
   1296     242.0747      0.00000
   1297     242.0792      0.00000
   1298     242.0960      0.00000
   1299     242.0960      0.00000
   1300     242.0969      0.00000
   1301     242.1003      0.00000
   1302     242.1110      0.00000
   1303     242.1230      0.00000
   1304     242.1230      0.00000
   1305     242.1236      0.00000
   1306     242.1261      0.00000
   1307     242.1261      0.00000
   1308     242.1322      0.00000
   1309     242.1349      0.00000
   1310     245.6622      0.00000
   1311     246.2237      0.00000
   1312     246.4672      0.00000
   1313     246.4672      0.00000
   1314     246.6706      0.00000
   1315     246.7557      0.00000
   1316     246.7557      0.00000
   1317     246.7572      0.00000
   1318     246.8073      0.00000
   1319     246.8430      0.00000
   1320     246.8430      0.00000
   1321     246.8478      0.00000
   1322     246.8952      0.00000
   1323     246.9199      0.00000
   1324     246.9199      0.00000
   1325     246.9550      0.00000
   1326     246.9786      0.00000
   1327     246.9786      0.00000
   1328     247.0438      0.00000
   1329     247.0438      0.00000
   1330     247.0761      0.00000
   1331     247.0857      0.00000
   1332     247.1153      0.00000
   1333     247.1212      0.00000
   1334     247.1406      0.00000
   1335     247.1492      0.00000
   1336     247.1492      0.00000
   1337     247.1751      0.00000
   1338     247.2232      0.00000
   1339     247.2387      0.00000
   1340     247.2474      0.00000
   1341     247.2474      0.00000
   1342     247.2507      0.00000
   1343     247.2856      0.00000
   1344     247.2935      0.00000
   1345     247.2935      0.00000
   1346     247.3025      0.00000
   1347     247.3057      0.00000
   1348     247.3074      0.00000
   1349     247.3074      0.00000
   1350     247.3165      0.00000
   1351     247.3210      0.00000
   1352     247.3210      0.00000
   1353     247.3265      0.00000
   1354     247.3270      0.00000
   1355     247.3270      0.00000
   1356     247.3625      0.00000
   1357     247.3628      0.00000
   1358     255.4608      0.00000
   1359     257.3413      0.00000
   1360     257.4791      0.00000
   1361     257.4791      0.00000
   1362     257.6028      0.00000
   1363     257.6028      0.00000
   1364     257.6028      0.00000
   1365     257.6302      0.00000
   1366     258.7294      0.00000
   1367     261.0462      0.00000
   1368     261.1506      0.00000
   1369     261.1506      0.00000
   1370     261.8761      0.00000
   1371     262.0430      0.00000
   1372     262.1703      0.00000
   1373     262.3073      0.00000
   1374     262.3073      0.00000
   1375     262.4364      0.00000
   1376     262.4455      0.00000
   1377     262.4455      0.00000
   1378     262.5774      0.00000
   1379     262.6466      0.00000
   1380     262.6683      0.00000
   1381     262.6683      0.00000
   1382     262.6726      0.00000
   1383     262.7878      0.00000
   1384     262.8074      0.00000
   1385     262.8074      0.00000
   1386     262.8533      0.00000
   1387     262.8549      0.00000
   1388     262.8549      0.00000
   1389     262.8702      0.00000
   1390     262.8790      0.00000
[...]
   4706     580.0195      0.00000
   4707     580.0637      0.00000
   4708     580.0782      0.00000
   4709     580.0782      0.00000
   4710     580.0985      0.00000
   4711     580.0985      0.00000
   4712     580.1290      0.00000
   4713     580.1529      0.00000
   4714     580.1687      0.00000
   4715     580.1687      0.00000
   4716     580.1697      0.00000
   4717     580.1745      0.00000
   4718     580.1824      0.00000
   4719     580.2192      0.00000
   4720     580.2192      0.00000
   4721     580.2364      0.00000
   4722     580.3736      0.00000
   4723     580.4178      0.00000
   4724     580.4178      0.00000
   4725     581.4243      0.00000
   4726     581.4243      0.00000
   4727     581.5142      0.00000
   4728     581.8352      0.00000
   4729     582.1736      0.00000
   4730     584.5776      0.00000
   4731     585.0093      0.00000
   4732     585.0093      0.00000
   4733     585.0665      0.00000
   4734     585.0913      0.00000
   4735     585.0914      0.00000
   4736     585.1308      0.00000
   4737     585.1760      0.00000
   4738     585.2455      0.00000
   4739     585.2543      0.00000
   4740     585.2822      0.00000
   4741     585.2944      0.00000
   4742     585.2944      0.00000
   4743     585.3014      0.00000
   4744     585.3446      0.00000
   4745     585.3478      0.00000
   4746     585.3550      0.00000
   4747     585.3550      0.00000
   4748     585.3792      0.00000
   4749     585.3792      0.00000
   4750     585.3908      0.00000
   4751     585.3908      0.00000
   4752     585.3947      0.00000
   4753     585.4060      0.00000
   4754     585.4060      0.00000
   4755     585.4081      0.00000
   4756     585.4109      0.00000
   4757     585.4424      0.00000
   4758     585.4497      0.00000
   4759     585.4497      0.00000
   4760     585.4546      0.00000
   4761     585.4566      0.00000
   4762     585.4566      0.00000
   4763     585.4575      0.00000
   4764     585.4577      0.00000
   4765     585.4595      0.00000
   4766     585.4921      0.00000
   4767     585.4935      0.00000
   4768     585.4935      0.00000
   4769     585.4996      0.00000
   4770     585.4998      0.00000
   4771     585.5007      0.00000
   4772     585.5007      0.00000
   4773     585.5044      0.00000
   4774     585.5115      0.00000
   4775     585.5270      0.00000
   4776     585.5278      0.00000
   4777     585.5278      0.00000
   4778     585.5335      0.00000
   4779     585.5335      0.00000
   4780     585.5389      0.00000
   4781     585.5394      0.00000
   4782     585.5915      0.00000
   4783     585.5915      0.00000
   4784     585.5953      0.00000
   4785     585.5980      0.00000
   4786     585.6008      0.00000
   4787     585.6008      0.00000
   4788     585.6008      0.00000
   4789     585.6020      0.00000
   4790     585.8139      0.00000
   4791     585.8235      0.00000
   4792     585.8346      0.00000
   4793     585.8639      0.00000
   4794     585.8639      0.00000
   4795     585.9057      0.00000
   4796     585.9057      0.00000
   4797     587.2433      0.00000
   4798     587.6865      0.00000
   4799     587.6870      0.00000
   4800     587.6870      0.00000
   4801     587.7220      0.00000
   4802     589.6097      0.00000
   4803     589.6889      0.00000
   4804     589.6889      0.00000
   4805     589.7637      0.00000
   4806     589.9780      0.00000
   4807     590.0143      0.00000
   4808     590.0143      0.00000
   4809     590.1027      0.00000
   4810     590.3148      0.00000
   4811     590.4250      0.00000
   4812     590.4747      0.00000
   4813     590.4747      0.00000
   4814     590.5013      0.00000
   4815     590.5026      0.00000
   4816     590.5311      0.00000
   4817     590.5750      0.00000
   4818     590.5750      0.00000
   4819     590.5898      0.00000
   4820     590.6299      0.00000
   4821     590.6299      0.00000
   4822     590.6416      0.00000
   4823     590.6416      0.00000
   4824     590.6552      0.00000
   4825     590.6600      0.00000
   4826     590.6641      0.00000
   4827     590.6715      0.00000
   4828     590.6715      0.00000
   4829     590.6754      0.00000
   4830     590.6764      0.00000
   4831     590.6764      0.00000
   4832     590.6839      0.00000
   4833     590.6892      0.00000
   4834     590.7088      0.00000
   4835     590.7121      0.00000
   4836     590.7121      0.00000
   4837     590.7314      0.00000
   4838     590.7314      0.00000
   4839     590.7450      0.00000
   4840     590.7566      0.00000
   4841     590.7616      0.00000
   4842     590.7692      0.00000
   4843     590.7755      0.00000
   4844     590.7838      0.00000
   4845     590.7917      0.00000
   4846     590.7917      0.00000
   4847     590.8377      0.00000
   4848     590.8473      0.00000
   4849     590.8520      0.00000
   4850     590.8521      0.00000
   4851     590.8575      0.00000
   4852     590.8575      0.00000
   4853     590.8615      0.00000
   4854     590.8661      0.00000
   4855     590.8708      0.00000
   4856     590.8734      0.00000
   4857     590.8736      0.00000
   4858     590.8736      0.00000
   4859     590.8968      0.00000
   4860     590.8968      0.00000
   4861     590.8978      0.00000
   4862     590.8978      0.00000
   4863     590.8996      0.00000
   4864     590.9009      0.00000
   4865     590.9036      0.00000
   4866     590.9036      0.00000
   4867     590.9110      0.00000
   4868     590.9184      0.00000
   4869     590.9195      0.00000
   4870     590.9195      0.00000
   4871     590.9196      0.00000
   4872     590.9251      0.00000
   4873     590.9278      0.00000
   4874     590.9314      0.00000
   4875     590.9314      0.00000
   4876     590.9341      0.00000
   4877     590.9345      0.00000
   4878     590.9372      0.00000
   4879     590.9372      0.00000
   4880     590.9400      0.00000
   4881     590.9583      0.00000
   4882     590.9719      0.00000
   4883     590.9754      0.00000
   4884     590.9754      0.00000
   4885     590.9834      0.00000
   4886     591.0275      0.00000
   4887     591.0360      0.00000
   4888     591.0384      0.00000
   4889     591.0439      0.00000
   4890     591.0444      0.00000
   4891     591.0444      0.00000
   4892     591.0450      0.00000
   4893     591.0531      0.00000
   4894     591.0583      0.00000
   4895     591.0583      0.00000
   4896     591.0892      0.00000
   4897     591.0892      0.00000
   4898     591.0928      0.00000
   4899     591.0964      0.00000
   4900     591.0964      0.00000
   4901     591.0981      0.00000
   4902     591.0981      0.00000
   4903     591.0985      0.00000
   4904     591.1176      0.00000
   4905     591.1176      0.00000
   4906     591.1180      0.00000
   4907     591.1200      0.00000
   4908     591.1209      0.00000
   4909     591.1209      0.00000
   4910     591.1253      0.00000
   4911     591.1331      0.00000
   4912     591.1331      0.00000
   4913     591.1564      0.00000
   4914     591.1572      0.00000
   4915     591.1592      0.00000
   4916     591.1592      0.00000
   4917     591.1665      0.00000
   4918     591.2312      0.00000
   4919     591.2346      0.00000
   4920     591.2346      0.00000
   4921     591.2347      0.00000
   4922     591.2353      0.00000
   4923     591.2353      0.00000
   4924     591.2359      0.00000
   4925     591.2359      0.00000
   4926     591.4103      0.00000
   4927     591.4103      0.00000
   4928     591.4179      0.00000
   4929     591.4564      0.00000
   4930     591.4601      0.00000
   4931     591.4601      0.00000
   4932     591.4623      0.00000
   4933     591.4624      0.00000
   4934     591.4638      0.00000
   4935     591.4638      0.00000
   4936     591.4738      0.00000
   4937     591.5822      0.00000
   4938     591.6237      0.00000
   4939     591.6688      0.00000
   4940     591.6688      0.00000
   4941     620.6474      0.00000
   4942     620.6474      0.00000
   4943     621.3204      0.00000
   4944     622.2749      0.00000
   4945     623.9303      0.00000
   4946   10000.0000      0.00000
   4947   10000.0000      0.00000
   4948   10000.0000      0.00000
   4949   10000.0000      0.00000
   4950   10000.0000      0.00000
   4951   10000.0000      0.00000
   4952   10000.0000      0.00000
   4953   10000.0000      0.00000
   4954   10000.0000      0.00000
   4955   10000.0000      0.00000
   4956   10000.0000      0.00000
   4957   10000.0000      0.00000
   4958   10000.0000      0.00000
   4959   10000.0000      0.00000
   4960   10000.0000      0.00000
   4961   10000.0000      0.00000
   4962   10000.0000      0.00000
   4963   10000.0000      0.00000
   4964   10000.0000      0.00000
   4965   10000.0000      0.00000
   4966   10000.0000      0.00000
   4967   10000.0000      0.00000
   4968   10000.0000      0.00000
   4969   10000.0000      0.00000
   4970   10000.0000      0.00000
   4971   10000.0000      0.00000
   4972   10000.0000      0.00000
   4973   10000.0000      0.00000
   4974   10000.0000      0.00000
   4975   10000.0000      0.00000
   4976   10000.0000      0.00000
   4977   10000.0000      0.00000
   4978   10000.0000      0.00000
   4979   10000.0000      0.00000
   4980   10000.0000      0.00000
   4981   10000.0000      0.00000
   4982   10000.0000      0.00000
   4983   10000.0000      0.00000
   4984   10000.0000      0.00000
   4985   10000.0000      0.00000
   4986   10000.0000      0.00000
   4987   10000.0000      0.00000
   4988   10000.0000      0.00000
   4989   10000.0000      0.00000
   4990   10000.0000      0.00000
   4991   10000.0000      0.00000
   4992   10000.0000      0.00000


--------------------------------------------------------------------------------------------------------


 soft charge-density along one line, spin component           1
         0         1         2         3         4         5         6         7         8         9
 total charge-density along one line
 
 pseudopotential strength for first ion, spin component:           1
-45.616 -46.589  16.347  -0.000   0.003  -0.000  -0.000  -0.001
-46.589 -47.584  17.492  -0.000   0.003  -0.000  -0.000  -0.002
 16.347  17.492  71.229  -0.000   0.005  -0.000   0.000  -0.111
 -0.000  -0.000  -0.000  -0.107   0.000   0.000   1.217  -0.000
  0.003   0.003   0.005   0.000  -0.107  -0.000  -0.000   1.218
 -0.000  -0.000  -0.000   0.000  -0.000  -0.107   0.000  -0.000
 -0.000  -0.000   0.000   1.217  -0.000   0.000 -57.657   0.000
 -0.001  -0.002  -0.111  -0.000   1.218  -0.000   0.000 -57.679
 -0.000  -0.000   0.000   0.000  -0.000   1.217  -0.000   0.000
 -0.000  -0.000   0.000   0.651  -0.000   0.000 -18.155   0.000
  0.086   0.087  -0.004  -0.000   0.653  -0.000   0.000 -18.176
 -0.000  -0.000  -0.000   0.000  -0.000   0.651  -0.000   0.000
  0.000   0.000   0.000   0.000   0.000   0.000  -0.000   0.000
 -0.000  -0.000  -0.000  -0.000   0.000   0.000   0.018  -0.000
  0.001   0.001   0.003  -0.000  -0.000  -0.000   0.000   0.021
 -0.000  -0.000  -0.000   0.000   0.000  -0.000   0.000  -0.000
 -0.000  -0.000  -0.000  -0.000  -0.000   0.000   0.000  -0.000
 -0.000  -0.000  -0.000  -0.000   0.000  -0.000   0.000  -0.000
  0.000   0.000   0.000   0.001  -0.000   0.000  -0.046   0.000
 -0.002  -0.002  -0.010   0.000   0.001   0.000  -0.000  -0.053
  0.000   0.000   0.000   0.000  -0.000   0.001  -0.000   0.000
  0.000   0.000   0.000   0.000   0.000  -0.000  -0.000  -0.000
 -0.000  -0.000  -0.000  -0.000   0.000  -0.000   0.000  -0.000
  0.000   0.000   0.000   0.000  -0.000   0.000  -0.000   0.000
 -0.000  -0.000  -0.000  -0.000   0.000  -0.000   0.003  -0.000
 -0.000  -0.000  -0.000  -0.000  -0.000  -0.000   0.000   0.003
 -0.000  -0.000  -0.000  -0.000   0.000  -0.000  -0.000  -0.000
 -0.000  -0.000  -0.000  -0.000   0.000   0.000   0.000  -0.000
  0.000   0.000   0.000   0.000  -0.000   0.000  -0.000   0.000
 total augmentation occupancy for first ion, spin component:           1
 15.012 -13.260  -0.031   0.000   2.843   0.000  -0.000   0.043  -0.000  -0.000   0.009  -0.000   0.000  -0.000   0.150  -0.000
-13.260  13.513   0.029  -0.000  -2.906  -0.000   0.000  -0.039   0.000   0.000  -0.008   0.000  -0.000   0.000  -0.151   0.000
 -0.031   0.029   0.000  -0.000  -0.006  -0.000   0.000  -0.000   0.000   0.000  -0.000   0.000  -0.000   0.000  -0.000   0.000
  0.000  -0.000  -0.000   0.000   0.000   0.000  -0.000   0.000  -0.000  -0.000   0.000  -0.000   0.000  -0.000   0.000  -0.000
  2.843  -2.906  -0.006   0.000   0.625   0.000  -0.000   0.008  -0.000  -0.000   0.002  -0.000   0.000  -0.000   0.033  -0.000
  0.000  -0.000  -0.000   0.000   0.000   0.000  -0.000   0.000  -0.000  -0.000   0.000  -0.000   0.000  -0.000   0.000  -0.000
 -0.000   0.000   0.000  -0.000  -0.000  -0.000   0.000  -0.000   0.000   0.000  -0.000   0.000  -0.000   0.000  -0.000   0.000
  0.043  -0.039  -0.000   0.000   0.008   0.000  -0.000   0.000  -0.000  -0.000   0.000  -0.000   0.000  -0.000   0.000  -0.000
 -0.000   0.000   0.000  -0.000  -0.000  -0.000   0.000  -0.000   0.000   0.000  -0.000   0.000  -0.000   0.000  -0.000   0.000
 -0.000   0.000   0.000  -0.000  -0.000  -0.000   0.000  -0.000   0.000   0.000  -0.000   0.000  -0.000   0.000  -0.000   0.000
  0.009  -0.008  -0.000   0.000   0.002   0.000  -0.000   0.000  -0.000  -0.000   0.000  -0.000   0.000  -0.000   0.000  -0.000
 -0.000   0.000   0.000  -0.000  -0.000  -0.000   0.000  -0.000   0.000   0.000  -0.000   0.000  -0.000   0.000  -0.000   0.000
  0.000  -0.000  -0.000   0.000   0.000   0.000  -0.000   0.000  -0.000  -0.000   0.000  -0.000   0.000  -0.000   0.000  -0.000
 -0.000   0.000   0.000  -0.000  -0.000  -0.000   0.000  -0.000   0.000   0.000  -0.000   0.000  -0.000   0.000  -0.000   0.000
  0.150  -0.151  -0.000   0.000   0.033   0.000  -0.000   0.000  -0.000  -0.000   0.000  -0.000   0.000  -0.000   0.002  -0.000
 -0.000   0.000   0.000  -0.000  -0.000  -0.000   0.000  -0.000   0.000   0.000  -0.000   0.000  -0.000   0.000  -0.000   0.000
  0.000  -0.000  -0.000   0.000   0.000   0.000  -0.000   0.000  -0.000  -0.000   0.000  -0.000   0.000  -0.000   0.000  -0.000
  0.000  -0.000  -0.000   0.000   0.000   0.000  -0.000   0.000  -0.000  -0.000   0.000  -0.000   0.000  -0.000   0.000  -0.000
 -0.000   0.000   0.000  -0.000  -0.000  -0.000   0.000  -0.000   0.000   0.000  -0.000   0.000  -0.000   0.000  -0.000   0.000
  0.023  -0.022  -0.000   0.000   0.005   0.000  -0.000   0.000  -0.000  -0.000   0.000  -0.000   0.000  -0.000   0.000  -0.000
 -0.000   0.000   0.000  -0.000  -0.000  -0.000   0.000  -0.000   0.000   0.000  -0.000   0.000  -0.000   0.000  -0.000   0.000
  0.000  -0.000  -0.000   0.000   0.000   0.000  -0.000   0.000  -0.000  -0.000   0.000  -0.000   0.000  -0.000   0.000  -0.000
 -0.000   0.000   0.000  -0.000  -0.000  -0.000   0.000  -0.000   0.000   0.000  -0.000   0.000  -0.000   0.000  -0.000   0.000
  0.000  -0.000  -0.000   0.000   0.000   0.000  -0.000   0.000  -0.000  -0.000   0.000  -0.000   0.000  -0.000   0.000  -0.000
 -0.000   0.000   0.000  -0.000  -0.000  -0.000   0.000  -0.000   0.000   0.000  -0.000   0.000  -0.000   0.000  -0.000   0.000
 -0.012   0.012   0.000  -0.000  -0.003  -0.000   0.000  -0.000   0.000   0.000  -0.000   0.000  -0.000   0.000  -0.000   0.000
 -0.000   0.000   0.000  -0.000  -0.000  -0.000   0.000  -0.000   0.000   0.000  -0.000   0.000  -0.000   0.000  -0.000   0.000
 -0.000   0.000   0.000  -0.000  -0.000  -0.000   0.000  -0.000   0.000   0.000  -0.000   0.000  -0.000   0.000  -0.000   0.000
  0.000  -0.000  -0.000   0.000   0.000   0.000  -0.000   0.000  -0.000  -0.000   0.000  -0.000   0.000  -0.000   0.000  -0.000


------------------------ aborting loop because EDIFF is reached ----------------------------------------


    CHARGE:  cpu time      0.0042: real time      0.0042
    FORLOC:  cpu time      0.0005: real time      0.0005
    FORHF :  cpu time      0.0294: real time      0.0296
    FORNL :  cpu time      0.0407: real time      0.0410
    FORHAR:  cpu time      0.0267: real time      0.0269
    MIXING:  cpu time      0.0001: real time      0.0001
    OFIELD:  cpu time      0.0001: real time      0.0002

 VOLUME and BASIS-vectors are now :
 -----------------------------------------------------------------------------
  energy-cutoff  :      600.00
  volume of cell :      148.20
      direct lattice vectors                 reciprocal lattice vectors
     5.291954090  0.000000000  0.000000000     0.188966114  0.000000000  0.000000000
     0.000000000  5.291954090  0.000000000     0.000000000  0.188966114  0.000000000
     0.000000000  0.000000000  5.291954090     0.000000000  0.000000000  0.188966114

  length of vectors
     5.291954090  5.291954090  5.291954090     0.188966114  0.188966114  0.188966114


 FORCES acting on ions
    electron-ion (+dipol)            ewald-force                    non-local-force                 convergence-correction
 -----------------------------------------------------------------------------------------------
   -.326E-08 -.912E-09 0.198E+02   -.378E-16 -.196E-17 -.139E+02   0.126E-08 -.641E-09 -.332E+01   -.755E-08 -.733E-08 0.901E-03
   -.719E-08 -.759E-08 -.123E+02   0.185E-16 0.162E-17 0.139E+02   -.602E-09 -.728E-09 -.695E+00   -.980E-08 -.108E-07 -.228E-03
 -----------------------------------------------------------------------------------------------
   -.105E-07 -.850E-08 0.749E+01   -.192E-16 -.342E-18 0.000E+00   0.662E-09 -.137E-08 -.402E+01   -.173E-07 -.181E-07 0.673E-03
 
 
 POSITION                                       TOTAL-FORCE (eV/Angst)
 -----------------------------------------------------------------------------------
      0.00000      0.00000      0.00000         0.000000      0.000000     -0.868003
      0.00000      0.00000      1.62106        -0.000000     -0.000000      0.868003
 -----------------------------------------------------------------------------------
    total drift:                               -0.000000     -0.000000     -0.000837


--------------------------------------------------------------------------------------------------------



  FREE ENERGIE OF THE ION-ELECTRON SYSTEM (eV)
  ---------------------------------------------------
  free  energy   TOTEN  =       -10.85391609 eV

  energy  without entropy=      -10.85391609  energy(sigma->0) =      -10.85391609
 


--------------------------------------------------------------------------------------------------------


    POTLOK:  cpu time      0.0322: real time      0.0324


--------------------------------------------------------------------------------------------------------


 writing wavefunctions
     LOOP+:  cpu time     22.5673: real time     22.7614
    4ORBIT:  cpu time      0.0000: real time      0.0000

 total amount of memory used by VASP MPI-rank0   112875. kBytes
=======================================================================

   base      :      30000. kBytes
   nonl-proj :       1238. kBytes
   fftplans  :        785. kBytes
   grid      :       3795. kBytes
   one-center:         40. kBytes
   HF        :        336. kBytes
   nonlr-proj:        218. kBytes
   wavefun   :       4193. kBytes
   fock_wrk  :      72270. kBytes
 
  
  
 General timing and accounting informations for this job:
 ========================================================
  
                  Total CPU time used (sec):       25.632
                            User time (sec):       24.346
                          System time (sec):        1.285
                         Elapsed time (sec):       26.079
  
                   Maximum memory used (kb):      651620.
                   Average memory used (kb):          N/A
  
                          Minor page faults:       167208
                          Major page faults:         6399
                 Voluntary context switches:         2169
