 vasp.6.3.0 20Jan22 (build Mar 06 2023 08:06:32) gamma-only                     
  
 executed on             LinuxIFC date 2025.05.22  12:21:46
 running on   48 total cores
 distrk:  each k-point on   48 cores,    1 groups
 distr:  one band on NCORE=   1 cores,   48 groups


--------------------------------------------------------------------------------------------------------


 INCAR:
   ENCUT = 600
   SIGMA = 0.001
   EDIFF = 1E-6
   LHFCALC = .TRUE.
   AEXX = 1.0
   ISYM = -1
   ALGO = sub
   NELM = 1
   NBANDS = 13517
   ISYM = -1
   PREC = Accurate

 POTCAR:    PAW_PBE Li_AE_GW 25Mar2010            
 POTCAR:    PAW_PBE H_GW 21Apr2008                
 -----------------------------------------------------------------------------
|                                                                             |
|           W    W    AA    RRRRR   N    N  II  N    N   GGGG   !!!           |
|           W    W   A  A   R    R  NN   N  II  NN   N  G    G  !!!           |
|           W    W  A    A  R    R  N N  N  II  N N  N  G       !!!           |
|           W WW W  AAAAAA  RRRRR   N  N N  II  N  N N  G  GGG   !            |
|           WW  WW  A    A  R   R   N   NN  II  N   NN  G    G                |
|           W    W  A    A  R    R  N    N  II  N    N   GGGG   !!!           |
|                                                                             |
|     For optimal performance we recommend to set                             |
|       NCORE = 2 up to number-of-cores-per-socket                            |
|     NCORE specifies how many cores store one orbital (NPAR=cpu/NCORE).      |
|     This setting can greatly improve the performance of VASP for DFT.       |
|     The default, NCORE=1 might be grossly inefficient on modern             |
|     multi-core architectures or massively parallel machines. Do your        |
|     own testing! More info at https://www.vasp.at/wiki/index.php/NCORE      |
|     Unfortunately you need to use the default for GW and RPA                |
|     calculations (for HF NCORE is supported but not extensively tested      |
|     yet).                                                                   |
|                                                                             |
 -----------------------------------------------------------------------------

 POTCAR:    PAW_PBE Li_AE_GW 25Mar2010            
   SHA256 =  ae13e6342699fe0ac99e545771c218bb29ee312c520ed4d7aae94e33ddcb6cd4 Li_AE_GW/POTCAR       
   COPYR  = (c) Copyright 25Mar2010 Georg Kresse                                                    
   COPYR  = This file is part of the software VASP. Any use, copying, and all other rights are regul
   COPYR  = If you do not have a valid VASP license, you may not use, copy or distribute this file. 
   VRHFIN =Li: 1s2s                                                                                 
   LEXCH  = PE                                                                                      
   EATOM  =   200.9989 eV,   14.7730 Ry                                                             
                                                                                                    
   TITEL  = PAW_PBE Li_AE_GW 25Mar2010                                                              
   LULTRA =        F    use ultrasoft PP ?                                                          
   IUNSCR =        0    unscreen: 0-lin 1-nonlin 2-no                                               
   RPACOR =    0.000    partial core radius                                                         
   POMASS =    7.010; ZVAL   =    3.000    mass and valenz                                          
   RCORE  =    1.500    outmost cutoff radius                                                       
   RWIGS  =    1.600; RWIGS  =    0.847    wigner-seitz radius (au A)                               
   ENMAX  =  433.699; ENMIN  =  325.274 eV                                                          
   RCLOC  =    1.003    cutoff for local pot                                                        
   LCOR   =        T    correct aug charges                                                         
   LPAW   =        T    paw PP                                                                      
   EAUG   = 1534.740                                                                                
   RMAX   =    1.536    core radius for proj-oper                                                   
   RAUG   =    1.300    factor for augmentation sphere                                              
   RDEP   =    1.520    radius for radial grids                                                     
   RDEPT  =    1.300    core radius for aug-charge                                                  
                                                                                                    
   Atomic configuration                                                                             
    5 entries                                                                                       
     n  l   j            E        occ.                                                              
     1  0  0.50       -53.3604   2.0000                                                             
     1  0  0.50       -52.0001   0.0000                                                             
     2  1  0.50        -1.5636   1.0000                                                             
     3  2  1.50        -1.3606   0.0000                                                             
     4  3  2.50        -1.3606   0.0000                                                             
   Description                                                                                      
     l       E           TYP  RCUT    TYP  RCUT                                                     
     0    -53.3603633     23  1.200                                                                 
     0    -52.0001064     23  1.200                                                                 
     0    176.8757380     23  1.300                                                                 
     1     -1.5635925     23  1.500                                                                 
     1    122.4524340     23  1.500                                                                 
     1    299.3281720     23  1.500                                                                 
     2     54.4233040     23  1.500                                                                 
     2    204.0873900     23  1.500                                                                 
     3    122.4524340     23  1.500                                                                 
  local pseudopotential read in
  kinetic energy density of atom read in
  atomic valenz-charges read in
  non local Contribution for L=           0  read in
    real space projection operators read in
  non local Contribution for L=           0  read in
    real space projection operators read in
  non local Contribution for L=           0  read in
    real space projection operators read in
  non local Contribution for L=           1  read in
    real space projection operators read in
  non local Contribution for L=           1  read in
    real space projection operators read in
  non local Contribution for L=           1  read in
    real space projection operators read in
  non local Contribution for L=           2  read in
    real space projection operators read in
  non local Contribution for L=           2  read in
    real space projection operators read in
  non local Contribution for L=           3  read in
    real space projection operators read in
    PAW grid and wavefunctions read in
 
   number of l-projection  operators is LMAX  =           9
   number of lm-projection operators is LMMAX =          29
 
 POTCAR:    PAW_PBE H_GW 21Apr2008                
   SHA256 =  cecc88617a3d1ece9865646f5d462fc0f44fd1f68d6f2eb08f18a2e421902afb H_GW/POTCAR           
   COPYR  = (c) Copyright 21Apr2008 Georg Kresse                                                    
   COPYR  = This file is part of the software VASP. Any use, copying, and all other rights are regul
   COPYR  = If you do not have a valid VASP license, you may not use, copy or distribute this file. 
   VRHFIN =H: ultrasoft test                                                                        
   LEXCH  = PE                                                                                      
   EATOM  =    12.4884 eV,    0.9179 Ry                                                             
                                                                                                    
   TITEL  = PAW_PBE H_GW 21Apr2008                                                                  
   LULTRA =        F    use ultrasoft PP ?                                                          
   IUNSCR =        0    unscreen: 0-lin 1-nonlin 2-no                                               
   RPACOR =    0.000    partial core radius                                                         
   POMASS =    1.000; ZVAL   =    1.000    mass and valenz                                          
   RCORE  =    1.100    outmost cutoff radius                                                       
   RWIGS  =    1.100; RWIGS  =    0.582    wigner-seitz radius (au A)                               
   ENMAX  =  300.000; ENMIN  =  250.000 eV                                                          
   RCLOC  =    0.701    cutoff for local pot                                                        
   LCOR   =        T    correct aug charges                                                         
   LPAW   =        T    paw PP                                                                      
   EAUG   =  500.000                                                                                
   RMAX   =    1.123    core radius for proj-oper                                                   
   RAUG   =    1.200    factor for augmentation sphere                                              
   RDEP   =    1.112    radius for radial grids                                                     
   RDEPT  =    1.100    core radius for aug-charge                                                  
                                                                                                    
   Atomic configuration                                                                             
    3 entries                                                                                       
     n  l   j            E        occ.                                                              
     1  0  0.50        -6.4927   1.0000                                                             
     2  1  0.50        -3.4015   0.0000                                                             
     3  2  1.50        13.6058   0.0000                                                             
   Description                                                                                      
     l       E           TYP  RCUT    TYP  RCUT                                                     
     0     -6.4927495     23  0.950                                                                 
     0      6.8029130     23  0.950                                                                 
     1     -4.0817478     23  1.100                                                                 
     1    108.8466080     23  1.100                                                                 
     2     81.6349560     23  1.100                                                                 
  local pseudopotential read in
  kinetic energy density of atom read in
  atomic valenz-charges read in
  non local Contribution for L=           0  read in
    real space projection operators read in
  non local Contribution for L=           0  read in
    real space projection operators read in
  non local Contribution for L=           1  read in
    real space projection operators read in
  non local Contribution for L=           1  read in
    real space projection operators read in
  non local Contribution for L=           2  read in
    real space projection operators read in
    PAW grid and wavefunctions read in
 
   number of l-projection  operators is LMAX  =           5
   number of lm-projection operators is LMMAX =          13
 
  PAW_PBE Li_AE_GW 25Mar2010            :
 energy of atom  1       EATOM= -200.9989
 kinetic energy error for atom=    0.0082 (will be added to EATOM!!)
  PAW_PBE H_GW 21Apr2008                :
 energy of atom  2       EATOM=  -12.4884
 kinetic energy error for atom=    0.0035 (will be added to EATOM!!)
 
 
 POSCAR: LiH
  positions in cartesian coordinates
  No initial velocities read in
 exchange correlation table for  LEXCH =        8
   RHO(1)=    0.500       N(1)  =     2000
   RHO(2)=  100.500       N(2)  =     4000
 


--------------------------------------------------------------------------------------------------------


 ion  position               nearest neighbor table
   1  0.000  0.000  0.000-   2 1.62
   2  0.000  0.000  0.219-   1 1.62
 

IMPORTANT INFORMATION: All symmetrisations will be switched off!
NOSYMM: (Re-)initialisation of all symmetry stuff for point group C_1.


----------------------------------------------------------------------------------------

                                     Primitive cell                                     

  volume of cell :     406.5400

  direct lattice vectors                    reciprocal lattice vectors
     7.408002056  0.000000000  0.000000000     0.134989163  0.000000000  0.000000000
     0.000000000  7.408002056  0.000000000     0.000000000  0.134989163  0.000000000
     0.000000000  0.000000000  7.408002056     0.000000000  0.000000000  0.134989163

  length of vectors
     7.408002056  7.408002056  7.408002056     0.134989163  0.134989163  0.134989163

  position of ions in fractional coordinates (direct lattice)
     0.000000000  0.000000000  0.000000000
     0.000000000  0.000000000  0.218825931

  ion indices of the primitive-cell ions
   primitive index   ion index
                 1           1
                 2           2

----------------------------------------------------------------------------------------

 
 
 KPOINTS: Automatically generated mesh            

Automatic generation of k-mesh.
 Grid dimensions read from file:
 generate k-points for:    1    1    1

 Generating k-lattice:

  Cartesian coordinates                     Fractional coordinates (reciprocal lattice)
     0.134989163  0.000000000  0.000000000     1.000000000  0.000000000  0.000000000
     0.000000000  0.134989163  0.000000000     0.000000000  1.000000000  0.000000000
     0.000000000  0.000000000  0.134989163     0.000000000  0.000000000  1.000000000

  Length of vectors
     0.134989163  0.134989163  0.134989163

  Shift w.r.t. Gamma in fractional coordinates (k-lattice)
     0.000000000  0.000000000  0.000000000

 
 Subroutine IBZKPT returns following result:
 ===========================================
 
 Found      1 irreducible k-points:
 
 Following reciprocal coordinates:
            Coordinates               Weight
  0.000000  0.000000  0.000000      1.000000
 
 Following cartesian coordinates:
            Coordinates               Weight
  0.000000  0.000000  0.000000      1.000000
 
 WARNING: full set of k-points will be restricted to regular points only.

 
 Subroutine IBZKPT_HF returns following result:
 ==============================================
 
 Found      1 k-points in 1st BZ
 the following      1 k-points will be used (e.g. in the exchange kernel)
 Following reciprocal coordinates:   # in IRBZ
  0.000000  0.000000  0.000000    1.00000000   1 t-inv F
 -----------------------------------------------------------------------------
|                                                                             |
|           W    W    AA    RRRRR   N    N  II  N    N   GGGG   !!!           |
|           W    W   A  A   R    R  NN   N  II  NN   N  G    G  !!!           |
|           W    W  A    A  R    R  N N  N  II  N N  N  G       !!!           |
|           W WW W  AAAAAA  RRRRR   N  N N  II  N  N N  G  GGG   !            |
|           WW  WW  A    A  R   R   N   NN  II  N   NN  G    G                |
|           W    W  A    A  R    R  N    N  II  N    N   GGGG   !!!           |
|                                                                             |
|     The number of bands has been changed from the values supplied in        |
|     the INCAR file. This is a result of running the parallel version.       |
|     The orbitals not found in the WAVECAR file will be initialized with     |
|     random numbers, which is usually adequate. For correlated               |
|     calculations, however, you should redo the groundstate calculation.     |
|     I found NBANDS = 13517. Now, NBANDS = 13536.                            |
|                                                                             |
 -----------------------------------------------------------------------------



--------------------------------------------------------------------------------------------------------




 Dimension of arrays:
   k-points           NKPTS =      1   k-points in BZ     NKDIM =      1   number of bands    NBANDS=  13536
   number of dos      NEDOS =    301   number of ions     NIONS =      2
   non local maximal  LDIM  =      9   non local SUM 2l+1 LMDIM =     29
   total plane-waves  NPLWV = 216000
   max r-space proj   IRMAX =      1   max aug-charges    IRDMAX=   6708
   dimension x,y,z NGX =    60 NGY =   60 NGZ =   60
   dimension x,y,z NGXF=   120 NGYF=  120 NGZF=  120
   support grid    NGXF=   120 NGYF=  120 NGZF=  120
   ions per type =               1   1
   NGX,Y,Z   is equivalent  to a cutoff of  13.46, 13.46, 13.46 a.u.
   NGXF,Y,Z  is equivalent  to a cutoff of  26.93, 26.93, 26.93 a.u.

 SYSTEM =  unknown system                          
 POSCAR =  LiH                                     

 Startparameter for this run:
   NWRITE =      2    write-flag & timer
   PREC   = accura    normal or accurate (medium, high low for compatibility)
   ISTART =      1    job   : 0-new  1-cont  2-samecut
   ICHARG =      0    charge: 1-file 2-atom 10-const
   ISPIN  =      1    spin polarized calculation?
   LNONCOLLINEAR =      F non collinear calculations
   LSORBIT =      F    spin-orbit coupling
   INIWAV =      1    electr: 0-lowe 1-rand  2-diag
   LASPH  =      F    aspherical Exc in radial PAW
 Electronic Relaxation 1
   ENCUT  =  600.0 eV  44.10 Ry    6.64 a.u.  14.80 14.80 14.80*2*pi/ulx,y,z
   ENINI  =  600.0     initial cutoff
   ENAUG  = 1534.7 eV  augmentation charge cutoff
   NELM   =      1;   NELMIN=  2; NELMDL=  0     # of ELM steps 
   EDIFF  = 0.1E-05   stopping-criterion for ELM
   LREAL  =      F    real-space projection
   NLSPLINE    = F    spline interpolate recip. space projectors
   LCOMPAT=      F    compatible to vasp.4.4
   GGA_COMPAT  = T    GGA compatible to vasp.4.4-vasp.4.6
   LMAXPAW     = -100 max onsite density
   LMAXMIX     =    2 max onsite mixed and CHGCAR
   VOSKOWN=      0    Vosko Wilk Nusair interpolation
   ROPT   =    0.00000   0.00000
 Ionic relaxation
   EDIFFG = 0.1E-04   stopping-criterion for IOM
   NSW    =      0    number of steps for IOM
   NBLOCK =      1;   KBLOCK =      1    inner block; outer block 
   IBRION =     -1    ionic relax: 0-MD 1-quasi-New 2-CG
   NFREE  =      0    steps in history (QN), initial steepest desc. (CG)
   ISIF   =      0    stress and relaxation
   IWAVPR =     10    prediction:  0-non 1-charg 2-wave 3-comb
   ISYM   =     -1    0-nonsym 1-usesym 2-fastsym
   LCORR  =      T    Harris-Foulkes like correction to forces

   POTIM  = 0.5000    time-step for ionic-motion
   TEIN   =    0.0    initial temperature
   TEBEG  =    0.0;   TEEND  =   0.0 temperature during run
   SMASS  =  -3.00    Nose mass-parameter (am)
   estimated Nose-frequenzy (Omega)   =  0.10E-29 period in steps = 0.13E+47 mass=  -0.125E-26a.u.
   SCALEE = 1.0000    scale energy and forces
   NPACO  =    256;   APACO  = 10.0  distance and # of slots for P.C.
   PSTRESS=    0.0 pullay stress

  Mass of Ions in am
   POMASS =   7.01  1.00
  Ionic Valenz
   ZVAL   =   3.00  1.00
  Atomic Wigner-Seitz radii
   RWIGS  =  -1.00 -1.00
  virtual crystal weights 
   VCA    =   1.00  1.00
   NELECT =       4.0000    total number of electrons
   NUPDOWN=      -1.0000    fix difference up-down

 DOS related values:
   EMIN   =  10.00;   EMAX   =-10.00  energy-range for DOS
   EFERMI =   0.00
   ISMEAR =     1;   SIGMA  =   0.00  broadening in eV -4-tet -1-fermi 0-gaus

 Electronic relaxation 2 (details)
   IALGO  =      4    algorithm
   LDIAG  =      T    sub-space diagonalisation (order eigenvalues)
   LSUBROT=      F    optimize rotation matrix (better conditioning)
   TURBO    =      0    0=normal 1=particle mesh
   IRESTART =      0    0=no restart 2=restart with 2 vectors
   NREBOOT  =      0    no. of reboots
   NMIN     =      0    reboot dimension
   EREF     =   0.00    reference energy to select bands
   IMIX   =      1    mixing-type and parameters
     AMIX     =   0.40;   BMIX     =  1.00
     AMIX_MAG =   1.60;   BMIX_MAG =  1.00
     AMIN     =   0.10
     WC   =   100.;   INIMIX=   1;  MIXPRE=   1;  MAXMIX= -45

 Intra band minimization:
   WEIMIN = 0.0000     energy-eigenvalue tresh-hold
   EBREAK =  0.18E-10  absolut break condition
   DEPER  =   0.30     relativ break condition  

   TIME   =   0.40     timestep for ELM

  volume/ion in A,a.u.               =     203.27      1371.73
  Fermi-wavevector in a.u.,A,eV,Ry     =   0.350801  0.662917  1.674348  0.123061
  Thomas-Fermi vector in A             =   1.262944
 
 Write flags
   LWAVE        =      T    write WAVECAR
   LDOWNSAMPLE  =      F    k-point downsampling of WAVECAR
   LCHARG       =      T    write CHGCAR
   LVTOT        =      F    write LOCPOT, total local potential
   LVHAR        =      F    write LOCPOT, Hartree potential only
   LELF         =      F    write electronic localiz. function (ELF)
   LORBIT       =      0    0 simple, 1 ext, 2 COOP (PROOUT), +10 PAW based schemes


 Dipole corrections
   LMONO  =      F    monopole corrections only (constant potential shift)
   LDIPOL =      F    correct potential (dipole corrections)
   IDIPOL =      0    1-x, 2-y, 3-z, 4-all directions 
   EPSILON=  1.0000000 bulk dielectric constant

 Exchange correlation treatment:
   GGA     =    --    GGA type
   LEXCH   =     8    internal setting for exchange type
   LIBXC   =     F    Libxc                    
   VOSKOWN =     0    Vosko Wilk Nusair interpolation
   EXXOEP  =     0    0=HF, 1=EXX-LHF (local Hartree Fock) 2=EXX OEP
   LHFCALC =     T    Hartree Fock is set to
   LSYMGRAD=     F    symmetrize gradient (conserves proper symmetry)
   PRECFOCK=normal    Normal, Fast or Accurate (Low or Medium for compatibility)
   LRHFCALC=     F    long range Hartree Fock
   LRSCOR  =     F    long range correlation only (use DFT for short range part)
   LTHOMAS =     F    Thomas Fermi screening in HF
   LMODELHF=     F    short range full HF, long range fraction AEXX
   LFOCKACE=     T    use Adeptively-Compressed-Exchange operator
   ENCUT4O =  -1.0   cutoff for four orbital integrals eV
   LMAXFOCK=     4    L truncation for augmentation on plane wave grid
   LMAXFOCKAE=  -1    L truncation for all-electron charge restoration on plane wave grid
   NMAXFOCKAE=   1    number of basis functions for all-electron charge restoration
   LFOCKAEDFT=     F  apply the AE augmentation even for DFT
   NKREDX  =     1    reduce k-point grid by
   NKREDY  =     1    reduce k-point grid by
   NKREDZ  =     1    reduce k-point grid by
   SHIFTRED=     F    shift reduced grid of Gamma
   HFKIDENT=     F    idential grid for each k-point
   ODDONLY =     F    use only odd q-grid points
   EVENONLY=     F    use only even q-grid points
   HFALPHA =   -1.0000 decay constant for conv. correction
   MCALPHA =    0.0000 extent of test-charge in conv. correction in multipole expansion
   AEXX    =    1.0000 exact exchange contribution
   HFSCREEN=    0.0000 screening length (either q_TF or 0.3 A-1)
   HFSCREENC=   0.0000 screening length for correlation (either q_TF or 0.3 A-1)
   HFRCUT  =    0.0000 spherical cutoff for potential kernel
   HFRCUTSOFT=    0.0000 smooth spherical cutoff for potential kernel
   SLABRCUT=    0.0000 cutoff in one direction for potential kernel
   SLABRCUT_DIRECTION=   3 cutoff direction for SLABRCUT
   ERFCRAY_SCREEN=    0.0000 screening factor for erfc+rayleigh like screening for potential kernel
   RAYLEXP=    0.0000  rayleigh exponent in erfc+rayleigh like screening
   ALDAX   =    0.0000 LDA exchange part
   AGGAX   =    0.0000 GGA exchange part
   ALDAC   =    0.0000 LDA correlation
   AGGAC   =    0.0000 GGA correlation
   ENCUTFOCK=  -1.0 apply spherical cutoff to Coloumb kernel
   NBANDSGWLOW=     1    first orbital included in HF term
   NBLOCK_FOCK=    64    blocking factor in FOCK_ACC

 Linear response parameters
   LEPSILON=     F    determine dielectric tensor
   LRPA    =     F    only Hartree local field effects (RPA)
   LNABLA  =     F    use nabla operator in PAW spheres
   LVEL    =     F    velocity operator in full k-point grid
   CSHIFT  =0.1000    complex shift for real part using Kramers Kronig
   OMEGAMAX=  -1.0    maximum frequency
   DEG_THRESHOLD= 0.2000000E-02 threshold for treating states as degnerate
   RTIME   =   -0.100 relaxation time in fs
  (WPLASMAI=    0.000 imaginary part of plasma frequency in eV, 0.658/RTIME)
   DFIELD  = 0.0000000 0.0000000 0.0000000 field for delta impulse in time
 
  Optional k-point grid parameters
   LKPOINTS_OPT  =     F    use optional k-point grid
   KPOINTS_OPT_MODE=     1    mode for optional k-point grid
 
 Orbital magnetization related:
   ORBITALMAG=     F  switch on orbital magnetization
   LCHIMAG   =     F  perturbation theory with respect to B field
   DQ        =  0.001000  dq finite difference perturbation B field
   LLRAUG    =     F  two centre corrections for induced B field



--------------------------------------------------------------------------------------------------------


 Static calculation
 charge density and potential will be updated during run
 non-spin polarized calculation
 Subrot: only subspace diagonalization (rotation)
    band-by band algorithm
 perform sub-space diagonalisation
    before iterative eigenvector-optimisation
 Kerker-like  mixing scheme
 using additional bands        13534
 reciprocal scheme for non local part
 calculate Harris-corrections to forces 
   (improved forces if not selfconsistent)
 use gradient corrections 
 use of overlap-Matrix (Vanderbilt PP)
 Methfessel and Paxton  Order N= 1 SIGMA  =   0.00


--------------------------------------------------------------------------------------------------------


  energy-cutoff  :      600.00
  volume of cell :      406.54
      direct lattice vectors                 reciprocal lattice vectors
     7.408002056  0.000000000  0.000000000     0.134989163  0.000000000  0.000000000
     0.000000000  7.408002056  0.000000000     0.000000000  0.134989163  0.000000000
     0.000000000  0.000000000  7.408002056     0.000000000  0.000000000  0.134989163

  length of vectors
     7.408002056  7.408002056  7.408002056     0.134989163  0.134989163  0.134989163


 
 old parameters found on file WAVECAR:
  energy-cutoff  :      600.00
  volume of cell :      406.54
      direct lattice vectors                 reciprocal lattice vectors
     7.408002056  0.000000000  0.000000000     0.134989163  0.000000000  0.000000000
     0.000000000  7.408002056  0.000000000     0.000000000  0.134989163  0.000000000
     0.000000000  0.000000000  7.408002056     0.000000000  0.000000000  0.134989163

  length of vectors

 
 k-points in units of 2pi/SCALE and weight: Automatically generated mesh            
   0.00000000  0.00000000  0.00000000       1.000
 
 k-points in reciprocal lattice and weights: Automatically generated mesh            
   0.00000000  0.00000000  0.00000000       1.000
 
 position of ions in fractional coordinates (direct lattice) 
   0.00000000  0.00000000  0.00000000
   0.00000000  0.00000000  0.21882593
 
 position of ions in cartesian coordinates  (Angst):
   0.00000000  0.00000000  0.00000000
   0.00000000  0.00000000  1.62106295
 


--------------------------------------------------------------------------------------------------------


 use serial FFT for orbitals x direction half grid
 k-point   1 :   0.0000 0.0000 0.0000  plane waves:    6759

 maximum and minimum number of plane-waves per node :      6759     6759

 maximum number of plane-waves:      6759
 maximum index in each direction: 
   IXMAX=   14   IYMAX=   14   IZMAX=   14
   IXMIN=    0   IYMIN=  -14   IZMIN=  -14


 serial   3D FFT for wavefunctions
 parallel 3D FFT for charge:
    minimum data exchange during FFTs selected (reduces bandwidth)


 FFT grid for exact exchange (Hartree Fock) 
  NGX = 48; NGY = 48; NGZ = 48

 use serial FFT for orbitals x direction half grid
 
 Radii for the augmentation spheres in the non-local exchange
 for species   1 augmentation radius   0.885 (default was   0.708)
       energy cutoff for augmentation   2400.0
 for species   2 augmentation radius   0.735 (default was   0.588)
       energy cutoff for augmentation   2400.0
 Maximum index for augmentation-charges in exchange          751
  SETUP_FOCK is finished

 total amount of memory used by VASP MPI-rank0    78117. kBytes
=======================================================================

   base      :      30000. kBytes
   nonl-proj :       3356. kBytes
   fftplans  :       2328. kBytes
   grid      :      11145. kBytes
   one-center:         40. kBytes
   HF        :        336. kBytes
   nonlr-proj:        267. kBytes
   wavefun   :      30645. kBytes
 
     INWAV:  cpu time      4.1842: real time      4.2078
 charge density for first step will be calculated from the start-wavefunctions


--------------------------------------------------------------------------------------------------------


 Maximum index for augmentation-charges          421 (set IRDMAX)


--------------------------------------------------------------------------------------------------------


 initial charge from wavefunction
    FEWALD:  cpu time      0.0005: real time      0.0005


--------------------------------------- Iteration      1(   1)  ---------------------------------------


    POTLOK:  cpu time      0.0243: real time      0.0247
    SETDIJ:  cpu time      0.0244: real time      0.0245
    EDDIAG:  cpu time    204.9405: real time    206.5421
       DOS:  cpu time      0.0013: real time      0.0013
    --------------------------------------------
      LOOP:  cpu time    204.9905: real time    206.5926

 eigenvalue-minimisations  :     0
 total energy-change (2. order) :-0.9707873E+01  ( 0.0000000E+00)
 number of electron       4.0000005 magnetization 
 augmentation part        0.8567502 magnetization 

 Free energy of the ion-electron system (eV)
  ---------------------------------------------------
  alpha Z        PSCENC =         0.18755897
  Ewald energy   TEWEN  =       -16.84580616
  -Hartree energ DENC   =       -91.29420527
  -exchange      EXHF   =        50.17792751
  -V(xc)+E(xc)   XCENC  =         0.00000000
  PAW double counting   =       104.23503371     -114.06304699
  entropy T*S    EENTRO =         0.00000000
  eigenvalues    EBANDS =      -150.15964016
  atomic energy  EATOM  =       208.05430547
  Solvation  Ediel_sol  =         0.00000000
  ---------------------------------------------------
  free energy    TOTEN  =        -9.70787292 eV

  energy without entropy =       -9.70787292  energy(sigma->0) =       -9.70787292
  exchange ACFDT corr.  =         0.00000000  see jH, gK, PRB 81, 115126


--------------------------------------------------------------------------------------------------------




 average (electrostatic) potential at core
  the test charge radii are     0.7079  0.5883
  (the norm of the test charge is              1.0000)
       1 -21.4906       2 -17.8581
 
 
 
 E-fermi :  -6.7758     XC(G=0):   0.0000     alpha+bet : -0.6067

 Fermi energy:        -6.7758061655

 k-point     1 :       0.0000    0.0000    0.0000
  band No.  band energies     occupation 
      1     -66.5419      2.00000
      2      -8.5379      2.00000
      3       0.1907      0.00000
      4       2.1838      0.00000
      5       2.3495      0.00000
      6       2.3495      0.00000
      7       2.8076      0.00000
      8       2.8278      0.00000
      9       3.8369      0.00000
     10       4.8259      0.00000
     11       4.8259      0.00000
     12       5.1741      0.00000
     13       5.4371      0.00000
     14       5.4847      0.00000
     15       5.4847      0.00000
     16       5.5732      0.00000
     17       5.6174      0.00000
     18       5.7160      0.00000
     19       5.7687      0.00000
     20       5.7687      0.00000
     21       7.4129      0.00000
     22       7.9790      0.00000
     23       7.9790      0.00000
     24       8.2769      0.00000
     25       8.2840      0.00000
     26       8.2840      0.00000
     27       8.4311      0.00000
     28       8.4502      0.00000
     29       9.9140      0.00000
     30      10.4389      0.00000
     31      10.4389      0.00000
     32      10.5844      0.00000
     33      10.7727      0.00000
     34      11.2035      0.00000
     35      12.1154      0.00000
     36      12.5911      0.00000
     37      12.5911      0.00000
     38      12.6801      0.00000
     39      13.3438      0.00000
     40      13.4253      0.00000
     41      13.4777      0.00000
     42      13.4777      0.00000
     43      13.6340      0.00000
     44      13.6416      0.00000
     45      13.6416      0.00000
     46      13.6746      0.00000
     47      13.7628      0.00000
     48      13.7628      0.00000
     49      13.7885      0.00000
     50      13.8702      0.00000
     51      13.9132      0.00000
     52      13.9132      0.00000
     53      13.9587      0.00000
     54      13.9886      0.00000
     55      14.0838      0.00000
     56      14.0838      0.00000
     57      14.1561      0.00000
     58      14.2800      0.00000
     59      15.5462      0.00000
     60      15.8126      0.00000
     61      15.8126      0.00000
     62      16.1207      0.00000
     63      16.1207      0.00000
     64      16.1284      0.00000
     65      16.1703      0.00000
     66      16.3755      0.00000
     67      16.4756      0.00000
     68      16.5481      0.00000
     69      16.5481      0.00000
     70      16.5640      0.00000
     71      16.5944      0.00000
     72      16.6099      0.00000
     73      16.6099      0.00000
     74      16.6645      0.00000
     75      16.7099      0.00000
     76      16.7099      0.00000
     77      16.7188      0.00000
     78      16.7400      0.00000
     79      16.7505      0.00000
     80      16.7505      0.00000
     81      16.8425      0.00000
     82      17.1891      0.00000
     83      21.0124      0.00000
     84      21.2840      0.00000
     85      21.2840      0.00000
     86      21.3138      0.00000
     87      21.7243      0.00000
     88      21.8401      0.00000
     89      21.8401      0.00000
     90      21.8837      0.00000
     91      21.8837      0.00000
     92      21.9728      0.00000
     93      22.0071      0.00000
     94      22.3461      0.00000
     95      23.3307      0.00000
     96      23.5750      0.00000
     97      23.5750      0.00000
     98      23.6663      0.00000
     99      24.2646      0.00000
    100      24.2646      0.00000
    101      24.2771      0.00000
    102      24.3081      0.00000
    103      24.4523      0.00000
    104      24.4542      0.00000
    105      24.4542      0.00000
    106      24.4802      0.00000
    107      24.6042      0.00000
    108      24.7529      0.00000
    109      24.7529      0.00000
    110      24.7652      0.00000
    111      24.7916      0.00000
    112      24.7994      0.00000
    113      24.8135      0.00000
    114      24.8135      0.00000
    115      24.8544      0.00000
    116      24.8569      0.00000
    117      24.8982      0.00000
    118      24.8982      0.00000
    119      24.9326      0.00000
    120      24.9490      0.00000
    121      24.9842      0.00000
    122      24.9842      0.00000
    123      25.0583      0.00000
    124      25.4609      0.00000
    125      26.3136      0.00000
    126      26.6084      0.00000
    127      26.6084      0.00000
    128      26.7910      0.00000
    129      26.8535      0.00000
    130      27.2936      0.00000
    131      27.3023      0.00000
    132      27.3387      0.00000
    133      27.3387      0.00000
    134      27.3911      0.00000
    135      27.4266      0.00000
    136      27.4266      0.00000
    137      27.4575      0.00000
    138      27.4993      0.00000
    139      27.4993      0.00000
    140      27.5122      0.00000
    141      27.5122      0.00000
    142      27.6081      0.00000
    143      27.6101      0.00000
    144      27.6418      0.00000
    145      27.7343      0.00000
    146      27.7343      0.00000
    147      27.8001      0.00000
    148      28.2817      0.00000
    149      29.4977      0.00000
    150      29.7128      0.00000
    151      29.7128      0.00000
    152      29.7499      0.00000
    153      29.9656      0.00000
    154      30.0253      0.00000
    155      30.0942      0.00000
    156      30.1063      0.00000
    157      30.1063      0.00000
    158      30.1814      0.00000
    159      30.1814      0.00000
    160      30.1892      0.00000
    161      30.1892      0.00000
    162      30.2259      0.00000
    163      30.2306      0.00000
    164      30.2306      0.00000
    165      30.2939      0.00000
    166      30.3113      0.00000
    167      30.3157      0.00000
    168      30.3704      0.00000
    169      30.4143      0.00000
    170      30.4143      0.00000
    171      30.4306      0.00000
    172      31.1759      0.00000
    173      32.6426      0.00000
    174      32.6426      0.00000
    175      32.6804      0.00000
    176      32.8586      0.00000
    177      32.8586      0.00000
    178      32.8612      0.00000
    179      32.9223      0.00000
    180      33.1514      0.00000
    181      34.4141      0.00000
    182      34.7450      0.00000
    183      34.7450      0.00000
    184      35.0389      0.00000
    185      35.1786      0.00000
    186      35.2858      0.00000
    187      35.2858      0.00000
    188      35.3364      0.00000
    189      35.3364      0.00000
    190      35.3871      0.00000
    191      35.4531      0.00000
    192      35.5879      0.00000
    193      35.6676      0.00000
    194      35.6707      0.00000
    195      35.6707      0.00000
    196      35.6805      0.00000
    197      35.7684      0.00000
    198      35.8207      0.00000
    199      35.8207      0.00000
    200      35.8747      0.00000
    201      35.8747      0.00000
    202      35.9063      0.00000
    203      35.9212      0.00000
    204      36.3998      0.00000
    205      37.3777      0.00000
    206      37.4263      0.00000
    207      37.4263      0.00000
    208      37.5679      0.00000
    209      37.8738      0.00000
    210      37.8738      0.00000
    211      37.8842      0.00000
    212      38.0732      0.00000
    213      38.0769      0.00000
    214      38.1215      0.00000
    215      38.1769      0.00000
    216      38.1808      0.00000
    217      38.1808      0.00000
    218      38.2780      0.00000
    219      38.2801      0.00000
    220      38.2801      0.00000
    221      38.2839      0.00000
    222      38.2839      0.00000
    223      38.3128      0.00000
    224      38.3128      0.00000
    225      38.3330      0.00000
    226      38.3728      0.00000
    227      38.4534      0.00000
    228      38.4877      0.00000
    229      38.4933      0.00000
    230      38.5197      0.00000
    231      38.5197      0.00000
    232      38.5372      0.00000
    233      38.5724      0.00000
    234      38.5797      0.00000
    235      38.5797      0.00000
    236      38.5942      0.00000
    237      38.5942      0.00000
    238      38.6044      0.00000
    239      38.6658      0.00000
    240      38.7048      0.00000
    241      38.7049      0.00000
    242      38.7179      0.00000
    243      38.7179      0.00000
    244      38.7436      0.00000
    245      38.7436      0.00000
    246      38.7490      0.00000
    247      38.7606      0.00000
    248      38.7726      0.00000
    249      38.7917      0.00000
    250      38.7917      0.00000
    251      38.7965      0.00000
    252      40.0728      0.00000
    253      43.2260      0.00000
    254      43.2260      0.00000
    255      43.2771      0.00000
    256      43.4774      0.00000
    257      43.6014      0.00000
    258      43.9930      0.00000
    259      44.9829      0.00000
    260      45.1745      0.00000
    261      45.1745      0.00000
    262      45.5195      0.00000
    263      45.8793      0.00000
    264      45.9399      0.00000
    265      46.0391      0.00000
    266      46.0549      0.00000
    267      46.0549      0.00000
    268      46.1424      0.00000
    269      46.1424      0.00000
    270      46.1596      0.00000
    271      46.2162      0.00000
    272      46.5119      0.00000
    273      46.5119      0.00000
    274      46.5247      0.00000
    275      46.5378      0.00000
    276      46.5434      0.00000
    277      46.5826      0.00000
    278      46.5826      0.00000
    279      46.5924      0.00000
    280      46.6551      0.00000
    281      46.6551      0.00000
    282      46.6827      0.00000
    283      46.6827      0.00000
    284      46.7052      0.00000
    285      46.7413      0.00000
    286      46.7492      0.00000
    287      46.7492      0.00000
    288      46.7533      0.00000
    289      46.7584      0.00000
    290      46.7590      0.00000
    291      46.7590      0.00000
    292      46.7754      0.00000
    293      46.7926      0.00000
    294      46.7930      0.00000
    295      46.8120      0.00000
    296      46.8120      0.00000
    297      46.8270      0.00000
    298      46.8642      0.00000
    299      46.8713      0.00000
    300      46.8713      0.00000
    301      46.8949      0.00000
    302      46.9271      0.00000
    303      46.9568      0.00000
    304      46.9568      0.00000
    305      46.9758      0.00000
    306      47.8160      0.00000
    307      48.5823      0.00000
    308      48.7092      0.00000
    309      48.7092      0.00000
    310      48.9802      0.00000
    311      49.0208      0.00000
    312      49.0399      0.00000
    313      49.0778      0.00000
    314      49.1551      0.00000
    315      49.1551      0.00000
    316      49.1971      0.00000
    317      49.1971      0.00000
    318      49.2844      0.00000
    319      49.3022      0.00000
    320      49.3177      0.00000
    321      49.3177      0.00000
    322      49.3376      0.00000
    323      49.3630      0.00000
    324      49.3630      0.00000
    325      49.3866      0.00000
    326      49.3989      0.00000
    327      49.4037      0.00000
    328      49.4037      0.00000
    329      49.4142      0.00000
    330      49.4197      0.00000
    331      49.4512      0.00000
    332      49.4512      0.00000
    333      49.4762      0.00000
    334      49.4762      0.00000
    335      49.4971      0.00000
    336      49.4971      0.00000
    337      49.4996      0.00000
    338      49.5846      0.00000
    339      49.6038      0.00000
    340      49.6038      0.00000
    341      49.6126      0.00000
    342      50.6705      0.00000
    343      51.5021      0.00000
    344      51.6598      0.00000
    345      51.6598      0.00000
    346      51.8643      0.00000
    347      51.8643      0.00000
    348      51.9073      0.00000
    349      51.9245      0.00000
    350      52.0021      0.00000
    351      52.0021      0.00000
    352      52.0248      0.00000
    353      52.0401      0.00000
    354      52.1367      0.00000
    355      52.1512      0.00000
    356      52.1659      0.00000
    357      52.1914      0.00000
    358      52.1914      0.00000
    359      52.1988      0.00000
    360      52.1988      0.00000
    361      52.2192      0.00000
    362      52.2195      0.00000
    363      52.2466      0.00000
    364      52.2466      0.00000
    365      52.2815      0.00000
    366      53.1184      0.00000
    367      54.2336      0.00000
    368      54.2986      0.00000
    369      54.2986      0.00000
    370      54.3834      0.00000
    371      54.5772      0.00000
    372      54.5991      0.00000
    373      54.6226      0.00000
    374      54.6782      0.00000
    375      54.6782      0.00000
    376      54.7264      0.00000
    377      54.7626      0.00000
    378      54.7626      0.00000
    379      54.7991      0.00000
    380      54.7992      0.00000
    381      54.7994      0.00000
    382      54.8351      0.00000
    383      54.8351      0.00000
    384      54.8415      0.00000
    385      54.8538      0.00000
    386      54.8768      0.00000
    387      54.8768      0.00000
    388      54.9396      0.00000
    389      54.9467      0.00000
    390      55.7397      0.00000
    391      56.7273      0.00000
    392      56.7551      0.00000
    393      56.7573      0.00000
    394      56.7573      0.00000
    395      57.1916      0.00000
    396      57.1973      0.00000
    397      57.2124      0.00000
    398      57.2368      0.00000
    399      57.2368      0.00000
    400      57.3444      0.00000
    401      57.3444      0.00000
    402      57.3900      0.00000
    403      57.3900      0.00000
    404      57.4043      0.00000
    405      57.4046      0.00000
    406      57.4394      0.00000
    407      57.4394      0.00000
    408      57.4601      0.00000
    409      57.5284      0.00000
    410      57.5284      0.00000
    411      57.5569      0.00000
    412      57.5652      0.00000
    413      57.6028      0.00000
    414      57.6141      0.00000
    415      57.6755      0.00000
    416      57.6755      0.00000
    417      57.6887      0.00000
    418      57.6940      0.00000
    419      57.7350      0.00000
    420      57.7350      0.00000
    421      57.7377      0.00000
    422      57.7377      0.00000
    423      57.7528      0.00000
    424      57.7545      0.00000
    425      57.7646      0.00000
    426      57.7975      0.00000
    427      57.8082      0.00000
    428      57.8334      0.00000
    429      57.8334      0.00000
    430      57.8384      0.00000
    431      57.8384      0.00000
    432      57.8509      0.00000
    433      57.8921      0.00000
    434      57.9035      0.00000
    435      57.9514      0.00000
    436      57.9514      0.00000
    437      57.9689      0.00000
    438      59.0724      0.00000
    439      59.6710      0.00000
    440      59.7036      0.00000
    441      59.7036      0.00000
    442      59.8504      0.00000
    443      59.8504      0.00000
    444      59.8590      0.00000
    445      59.9248      0.00000
    446      60.4101      0.00000
    447      60.4398      0.00000
    448      60.4427      0.00000
    449      60.4445      0.00000
    450      60.4445      0.00000
    451      60.4506      0.00000
    452      60.4506      0.00000
    453      60.4636      0.00000
    454      60.4639      0.00000
    455      60.5209      0.00000
    456      60.5209      0.00000
    457      60.5336      0.00000
    458      60.5655      0.00000
    459      60.5791      0.00000
    460      60.5791      0.00000
    461      60.6036      0.00000
    462      61.7552      0.00000
    463      65.0910      0.00000
    464      65.1221      0.00000
    465      65.1221      0.00000
    466      65.1918      0.00000
    467      65.6086      0.00000
    468      65.6359      0.00000
    469      65.6359      0.00000
    470      65.6859      0.00000
    471      65.7317      0.00000
    472      65.7422      0.00000
    473      65.7505      0.00000
    474      65.7505      0.00000
    475      65.8082      0.00000
    476      65.8082      0.00000
    477      65.8231      0.00000
    478      65.8231      0.00000
    479      65.8293      0.00000
    480      65.8512      0.00000
    481      65.8550      0.00000
    482      65.8615      0.00000
    483      65.8615      0.00000
    484      65.8689      0.00000
    485      65.8781      0.00000
    486      66.3078      0.00000
    487      67.3232      0.00000
    488      67.3232      0.00000
    489      67.5242      0.00000
    490      67.9616      0.00000
    491      67.9799      0.00000
    492      67.9861      0.00000
    493      68.1141      0.00000
    494      68.1141      0.00000
    495      68.1537      0.00000
    496      68.1586      0.00000
    497      68.1586      0.00000
    498      68.2334      0.00000
    499      68.2769      0.00000
    500      68.2951      0.00000
    501      68.2951      0.00000
    502      68.3172      0.00000
    503      68.3756      0.00000
    504      68.5645      0.00000
    505      68.5685      0.00000
    506      68.5685      0.00000
    507      68.5720      0.00000
    508      68.6609      0.00000
    509      68.7208      0.00000
    510      68.7276      0.00000
    511      68.7276      0.00000
    512      68.7545      0.00000
    513      68.7545      0.00000
    514      68.7739      0.00000
    515      68.7856      0.00000
    516      69.3350      0.00000
    517      70.0022      0.00000
    518      70.1191      0.00000
    519      70.1191      0.00000
    520      70.2949      0.00000
    521      70.4656      0.00000
    522      70.5806      0.00000
    523      70.7606      0.00000
    524      70.7606      0.00000
    525      70.8542      0.00000
    526      70.8817      0.00000
    527      70.8817      0.00000
    528      70.8890      0.00000
    529      70.9561      0.00000
    530      70.9949      0.00000
    531      70.9949      0.00000
    532      70.9951      0.00000
    533      71.0194      0.00000
    534      71.1178      0.00000
    535      71.1358      0.00000
    536      71.1666      0.00000
    537      71.1684      0.00000
    538      71.1684      0.00000
    539      71.1758      0.00000
    540      71.1896      0.00000
    541      71.1896      0.00000
    542      71.1996      0.00000
    543      71.1996      0.00000
    544      71.2201      0.00000
    545      71.2354      0.00000
    546      71.2354      0.00000
    547      71.2412      0.00000
    548      71.2559      0.00000
    549      71.3047      0.00000
    550      71.3067      0.00000
    551      71.3067      0.00000
    552      71.3136      0.00000
    553      71.3462      0.00000
    554      71.3462      0.00000
    555      71.3831      0.00000
    556      71.3841      0.00000
    557      71.3841      0.00000
    558      71.3887      0.00000
    559      71.3887      0.00000
    560      71.3887      0.00000
    561      71.3925      0.00000
    562      71.4091      0.00000
    563      71.4491      0.00000
    564      71.4516      0.00000
    565      71.4678      0.00000
    566      71.4735      0.00000
    567      71.4735      0.00000
    568      71.4880      0.00000
    569      71.4880      0.00000
    570      71.5060      0.00000
    571      71.5152      0.00000
    572      71.5408      0.00000
    573      71.5408      0.00000
    574      71.5415      0.00000
    575      71.5428      0.00000
    576      71.5440      0.00000
    577      71.5475      0.00000
    578      71.5712      0.00000
    579      71.5712      0.00000
    580      71.5737      0.00000
    581      71.5737      0.00000
    582      71.5823      0.00000
    583      71.5846      0.00000
    584      71.6482      0.00000
    585      71.6524      0.00000
    586      71.6524      0.00000
    587      71.6540      0.00000
    588      73.0210      0.00000
    589      73.5041      0.00000
    590      73.6618      0.00000
    591      73.6618      0.00000
    592      73.6961      0.00000
    593      73.7878      0.00000
    594      73.8229      0.00000
    595      73.9176      0.00000
    596      73.9179      0.00000
    597      73.9179      0.00000
    598      73.9381      0.00000
    599      73.9496      0.00000
    600      73.9496      0.00000
    601      73.9770      0.00000
    602      74.0353      0.00000
    603      74.0353      0.00000
    604      74.0461      0.00000
    605      74.0513      0.00000
    606      74.0524      0.00000
    607      74.0524      0.00000
    608      74.0592      0.00000
    609      74.0732      0.00000
    610      74.0732      0.00000
    611      74.1054      0.00000
    612      74.1054      0.00000
    613      74.1184      0.00000
    614      74.1653      0.00000
    615      74.1656      0.00000
    616      74.2667      0.00000
    617      74.2738      0.00000
    618      74.2738      0.00000
    619      74.2792      0.00000
    620      75.9110      0.00000
    621      78.0521      0.00000
    622      78.0521      0.00000
    623      78.0844      0.00000
    624      78.3169      0.00000
    625      78.7085      0.00000
    626      78.7336      0.00000
    627      78.7336      0.00000
    628      78.9475      0.00000
    629      79.0138      0.00000
    630      79.0245      0.00000
    631      79.1637      0.00000
    632      79.1637      0.00000
    633      79.2059      0.00000
    634      79.2059      0.00000
    635      79.2129      0.00000
    636      79.2345      0.00000
    637      79.2528      0.00000
    638      79.2802      0.00000
    639      79.2802      0.00000
    640      79.2971      0.00000
    641      79.2971      0.00000
    642      79.3022      0.00000
    643      79.3210      0.00000
    644      79.3378      0.00000
    645      79.3716      0.00000
    646      79.3716      0.00000
    647      79.3746      0.00000
    648      79.4038      0.00000
    649      79.4038      0.00000
    650      79.4183      0.00000
    651      79.4190      0.00000
    652      79.4371      0.00000
    653      79.4687      0.00000
    654      79.4902      0.00000
    655      79.4902      0.00000
    656      79.5122      0.00000
    657      79.5288      0.00000
    658      79.5288      0.00000
    659      79.5367      0.00000
    660      79.5441      0.00000
    661      79.5474      0.00000
    662      79.5474      0.00000
    663      79.5614      0.00000
    664      79.5614      0.00000
    665      79.5631      0.00000
    666      79.5842      0.00000
    667      79.5859      0.00000
    668      79.6569      0.00000
    669      79.6579      0.00000
    670      79.6579      0.00000
    671      79.6650      0.00000
    672      79.6667      0.00000
    673      79.6667      0.00000
    674      79.6676      0.00000
    675      79.6714      0.00000
    676      79.7301      0.00000
    677      79.7562      0.00000
    678      79.7562      0.00000
    679      79.7666      0.00000
    680      79.7804      0.00000
    681      79.7894      0.00000
    682      79.7894      0.00000
    683      79.8094      0.00000
    684      79.8476      0.00000
    685      79.8551      0.00000
    686      79.8597      0.00000
    687      79.8597      0.00000
    688      79.8641      0.00000
    689      79.8641      0.00000
    690      79.8665      0.00000
    691      79.8696      0.00000
    692      81.0713      0.00000
    693      81.4474      0.00000
    694      81.6678      0.00000
    695      81.6678      0.00000
    696      81.7600      0.00000
    697      81.8167      0.00000
    698      81.9663      0.00000
    699      81.9663      0.00000
    700      81.9850      0.00000
    701      82.0128      0.00000
    702      82.0298      0.00000
    703      82.0298      0.00000
    704      82.0494      0.00000
    705      82.0629      0.00000
    706      82.1031      0.00000
    707      82.1031      0.00000
    708      82.1213      0.00000
    709      82.1213      0.00000
    710      82.2002      0.00000
    711      82.2129      0.00000
    712      82.2129      0.00000
    713      82.2239      0.00000
    714      82.2654      0.00000
    715      82.2916      0.00000
    716      82.2920      0.00000
    717      82.3537      0.00000
    718      82.3537      0.00000
    719      82.3573      0.00000
    720      82.3584      0.00000
    721      82.4061      0.00000
    722      82.4061      0.00000
    723      82.4062      0.00000
    724      82.4062      0.00000
    725      82.4066      0.00000
    726      82.4227      0.00000
    727      82.4227      0.00000
    728      82.4893      0.00000
    729      82.4917      0.00000
    730      82.5037      0.00000
    731      82.5037      0.00000
    732      82.5131      0.00000
    733      82.5164      0.00000
    734      82.5164      0.00000
    735      82.5510      0.00000
    736      82.5865      0.00000
    737      82.6159      0.00000
    738      82.6159      0.00000
    739      82.6305      0.00000
    740      85.1637      0.00000
    741      87.2309      0.00000
    742      87.2309      0.00000
    743      87.2995      0.00000
    744      87.4212      0.00000
    745      87.5314      0.00000
    746      87.5836      0.00000
    747      87.5836      0.00000
    748      87.6006      0.00000
    749      87.6006      0.00000
    750      87.6492      0.00000
    751      87.6635      0.00000
    752      88.1727      0.00000
    753      89.4357      0.00000
    754      89.4888      0.00000
    755      89.4888      0.00000
    756      89.6890      0.00000
    757      90.0264      0.00000
    758      90.0264      0.00000
    759      90.0459      0.00000
    760      90.1822      0.00000
    761      90.2169      0.00000
    762      90.2169      0.00000
    763      90.2726      0.00000
    764      90.3039      0.00000
    765      90.3282      0.00000
    766      90.3369      0.00000
    767      90.3436      0.00000
    768      90.3436      0.00000
    769      90.4180      0.00000
    770      90.4180      0.00000
    771      90.4338      0.00000
    772      90.4338      0.00000
    773      90.4352      0.00000
    774      90.4408      0.00000
    775      90.4429      0.00000
    776      90.4472      0.00000
    777      90.4580      0.00000
    778      90.4580      0.00000
    779      90.4708      0.00000
    780      90.4864      0.00000
    781      90.5043      0.00000
    782      90.5096      0.00000
    783      90.5115      0.00000
    784      90.5115      0.00000
    785      90.5146      0.00000
    786      90.5349      0.00000
    787      90.5349      0.00000
    788      90.5878      0.00000
    789      90.5878      0.00000
    790      90.5926      0.00000
    791      90.5979      0.00000
    792      90.6035      0.00000
    793      90.6035      0.00000
    794      90.6071      0.00000
    795      90.6097      0.00000
    796      90.6783      0.00000
    797      90.6843      0.00000
    798      90.6843      0.00000
    799      90.6888      0.00000
    800      91.6829      0.00000
    801      92.3033      0.00000
    802      92.3863      0.00000
    803      92.3863      0.00000
    804      92.6037      0.00000
    805      92.6037      0.00000
    806      92.6363      0.00000
    807      92.7060      0.00000
    808      92.7272      0.00000
    809      92.9463      0.00000
    810      92.9463      0.00000
    811      92.9556      0.00000
    812      92.9708      0.00000
    813      92.9818      0.00000
    814      93.0179      0.00000
    815      93.0602      0.00000
    816      93.0602      0.00000
    817      93.0831      0.00000
    818      93.1216      0.00000
    819      93.1391      0.00000
    820      93.1391      0.00000
    821      93.1462      0.00000
    822      93.1550      0.00000
    823      93.1550      0.00000
    824      93.1709      0.00000
    825      93.1720      0.00000
    826      93.1781      0.00000
    827      93.1781      0.00000
    828      93.2131      0.00000
    829      93.2131      0.00000
    830      93.2565      0.00000
    831      93.2646      0.00000
    832      93.3450      0.00000
    833      93.3492      0.00000
    834      93.3492      0.00000
    835      93.3497      0.00000
    836      93.3530      0.00000
    837      93.3530      0.00000
    838      93.3538      0.00000
    839      93.3564      0.00000
    840      93.4382      0.00000
    841      93.4507      0.00000
    842      93.4507      0.00000
    843      93.4519      0.00000
    844      93.4632      0.00000
    845      93.4718      0.00000
    846      93.4718      0.00000
    847      93.4725      0.00000
    848      94.5403      0.00000
    849      95.1955      0.00000
    850      95.4143      0.00000
    851      95.4143      0.00000
    852      95.5392      0.00000
    853      95.6891      0.00000
    854      95.7187      0.00000
    855      95.7214      0.00000
    856      95.7241      0.00000
    857      95.7241      0.00000
    858      95.7916      0.00000
    859      95.7916      0.00000
    860      95.8188      0.00000
    861      95.8191      0.00000
    862      95.8191      0.00000
    863      95.8214      0.00000
    864      95.8633      0.00000
    865      95.8633      0.00000
    866      95.9201      0.00000
    867      95.9287      0.00000
    868      95.9287      0.00000
    869      95.9420      0.00000
    870      95.9597      0.00000
    871      95.9705      0.00000
    872      95.9873      0.00000
    873      96.0029      0.00000
    874      96.0186      0.00000
    875      96.0261      0.00000
    876      96.0261      0.00000
    877      96.0373      0.00000
    878      96.0373      0.00000
    879      96.0398      0.00000
    880      96.0516      0.00000
    881      96.0516      0.00000
    882      96.0534      0.00000
    883      96.0537      0.00000
    884      96.0606      0.00000
    885      96.0814      0.00000
    886      96.0814      0.00000
    887      96.0871      0.00000
    888      96.0871      0.00000
    889      96.0878      0.00000
    890      96.0955      0.00000
    891      96.0990      0.00000
    892      96.1881      0.00000
    893      96.2022      0.00000
    894      96.2022      0.00000
    895      96.2121      0.00000
    896      97.4160      0.00000
    897      98.1021      0.00000
    898      98.1021      0.00000
    899      98.2343      0.00000
    900      98.2347      0.00000
    901      98.3084      0.00000
    902      98.4434      0.00000
    903      98.4860      0.00000
    904      98.5091      0.00000
    905      98.5091      0.00000
    906      98.5427      0.00000
    907      98.5427      0.00000
    908      98.5664      0.00000
    909      98.6136      0.00000
    910      98.6144      0.00000
    911      98.6463      0.00000
    912      98.6463      0.00000
    913      98.6997      0.00000
    914      98.7212      0.00000
    915      98.7227      0.00000
    916      98.7285      0.00000
    917      98.7327      0.00000
    918      98.7327      0.00000
    919      98.7509      0.00000
    920      98.7509      0.00000
    921      98.7558      0.00000
    922      98.7573      0.00000
    923      98.7573      0.00000
    924      98.7651      0.00000
    925      98.7655      0.00000
    926      99.8048      0.00000
    927     100.3885      0.00000
    928     100.5230      0.00000
    929     100.5230      0.00000
    930     100.6338      0.00000
    931     100.6399      0.00000
    932     101.3404      0.00000
    933     101.3462      0.00000
    934     101.3462      0.00000
    935     101.3542      0.00000
    936     101.3916      0.00000
    937     101.4290      0.00000
    938     101.4290      0.00000
    939     101.4454      0.00000
    940     101.5135      0.00000
    941     101.5135      0.00000
    942     101.5157      0.00000
    943     101.5157      0.00000
    944     101.6104      0.00000
    945     101.6104      0.00000
    946     101.7105      0.00000
    947     101.7623      0.00000
    948     101.7623      0.00000
    949     101.7834      0.00000
    950     102.1518      0.00000
    951     103.1148      0.00000
    952     103.2168      0.00000
    953     103.2168      0.00000
    954     103.5331      0.00000
    955     103.6689      0.00000
    956     103.6965      0.00000
    957     103.7072      0.00000
    958     103.7072      0.00000
    959     103.7176      0.00000
    960     103.8615      0.00000
    961     103.8791      0.00000
    962     103.8791      0.00000
    963     103.9069      0.00000
    964     103.9145      0.00000
    965     103.9145      0.00000
    966     103.9322      0.00000
    967     103.9473      0.00000
    968     103.9635      0.00000
    969     103.9635      0.00000
    970     103.9764      0.00000
    971     103.9764      0.00000
    972     103.9988      0.00000
    973     104.0383      0.00000
    974     104.0538      0.00000
    975     104.0538      0.00000
    976     104.0574      0.00000
    977     104.0682      0.00000
    978     104.0769      0.00000
    979     104.0877      0.00000
    980     104.2004      0.00000
    981     104.2004      0.00000
    982     104.2025      0.00000
    983     104.2178      0.00000
    984     104.2243      0.00000
    985     104.2243      0.00000
    986     104.2256      0.00000
    987     104.2581      0.00000
    988     104.2581      0.00000
    989     104.2683      0.00000
    990     104.2711      0.00000
    991     104.2711      0.00000
    992     104.3024      0.00000
    993     104.3045      0.00000
    994     104.3157      0.00000
    995     104.3157      0.00000
    996     104.3163      0.00000
    997     104.3163      0.00000
    998     104.3247      0.00000
    999     104.3250      0.00000
   1000     104.3260      0.00000
   1001     104.3274      0.00000
   1002     104.3409      0.00000
   1003     104.3520      0.00000
   1004     104.3520      0.00000
   1005     104.3598      0.00000
   1006     104.3662      0.00000
   1007     104.3846      0.00000
   1008     104.3846      0.00000
   1009     104.4063      0.00000
   1010     104.4151      0.00000
   1011     104.4263      0.00000
   1012     104.4263      0.00000
   1013     104.4283      0.00000
   1014     104.4318      0.00000
   1015     104.4367      0.00000
   1016     104.4431      0.00000
   1017     104.4431      0.00000
   1018     104.4533      0.00000
   1019     104.4533      0.00000
   1020     104.4569      0.00000
   1021     104.4621      0.00000
   1022     107.0203      0.00000
   1023     108.8174      0.00000
   1024     108.9543      0.00000
   1025     108.9543      0.00000
   1026     109.1715      0.00000
   1027     109.2716      0.00000
   1028     109.3932      0.00000
   1029     109.4532      0.00000
   1030     109.4532      0.00000
   1031     109.4817      0.00000
   1032     109.5043      0.00000
   1033     109.5571      0.00000
   1034     109.5571      0.00000
   1035     109.5941      0.00000
   1036     109.5941      0.00000
   1037     109.6210      0.00000
   1038     109.6391      0.00000
   1039     109.6444      0.00000
   1040     109.6444      0.00000
   1041     109.6524      0.00000
   1042     109.6683      0.00000
   1043     109.6683      0.00000
   1044     109.7401      0.00000
   1045     109.7407      0.00000
   1046     110.0923      0.00000
   1047     110.9403      0.00000
   1048     110.9403      0.00000
   1049     110.9664      0.00000
   1050     111.3571      0.00000
   1051     111.4744      0.00000
   1052     111.5526      0.00000
   1053     111.5526      0.00000
   1054     111.6934      0.00000
   1055     111.7642      0.00000
   1056     111.8603      0.00000
   1057     111.8788      0.00000
   1058     111.8788      0.00000
   1059     111.8964      0.00000
   1060     111.9375      0.00000
   1061     111.9375      0.00000
   1062     111.9507      0.00000
   1063     112.0086      0.00000
   1064     112.0086      0.00000
   1065     112.0208      0.00000
   1066     112.0352      0.00000
   1067     112.0811      0.00000
   1068     112.1039      0.00000
   1069     112.1179      0.00000
   1070     112.1179      0.00000
   1071     112.1563      0.00000
   1072     112.1566      0.00000
   1073     112.1847      0.00000
   1074     112.1847      0.00000
   1075     112.2139      0.00000
   1076     112.2139      0.00000
   1077     112.2190      0.00000
   1078     112.2350      0.00000
   1079     112.2500      0.00000
   1080     112.2500      0.00000
   1081     112.2507      0.00000
   1082     112.2835      0.00000
   1083     112.2835      0.00000
   1084     112.3505      0.00000
   1085     112.3535      0.00000
   1086     112.3535      0.00000
   1087     112.3574      0.00000
   1088     112.3898      0.00000
   1089     112.4095      0.00000
   1090     112.4174      0.00000
   1091     112.4174      0.00000
   1092     112.4289      0.00000
   1093     112.4328      0.00000
   1094     112.4330      0.00000
   1095     112.4752      0.00000
   1096     112.4752      0.00000
   1097     112.4945      0.00000
   1098     112.4999      0.00000
   1099     112.5256      0.00000
   1100     112.5258      0.00000
   1101     112.5258      0.00000
   1102     112.5273      0.00000
   1103     112.5283      0.00000
   1104     112.5287      0.00000
   1105     112.5297      0.00000
   1106     112.5300      0.00000
   1107     112.5300      0.00000
   1108     112.5507      0.00000
   1109     112.5507      0.00000
   1110     112.5520      0.00000
   1111     112.5520      0.00000
   1112     112.5564      0.00000
   1113     112.5710      0.00000
   1114     112.5710      0.00000
   1115     112.5765      0.00000
   1116     112.5765      0.00000
   1117     112.5858      0.00000
   1118     112.6071      0.00000
   1119     112.6071      0.00000
   1120     112.6172      0.00000
   1121     112.6282      0.00000
   1122     112.6473      0.00000
   1123     112.6478      0.00000
   1124     112.6588      0.00000
   1125     112.6588      0.00000
   1126     112.6606      0.00000
   1127     112.6615      0.00000
   1128     112.6739      0.00000
   1129     112.6739      0.00000
   1130     112.6777      0.00000
   1131     112.6777      0.00000
   1132     112.6792      0.00000
   1133     112.6871      0.00000
   1134     112.6938      0.00000
   1135     112.6979      0.00000
   1136     112.6979      0.00000
   1137     112.7052      0.00000
   1138     112.7523      0.00000
   1139     112.7640      0.00000
   1140     112.7640      0.00000
   1141     112.7731      0.00000
   1142     114.1420      0.00000
   1143     114.5173      0.00000
   1144     114.5674      0.00000
   1145     114.5674      0.00000
   1146     114.6848      0.00000
   1147     114.6848      0.00000
   1148     114.7561      0.00000
   1149     114.7736      0.00000
   1150     114.7988      0.00000
   1151     114.8167      0.00000
   1152     114.8370      0.00000
   1153     114.8370      0.00000
   1154     115.0197      0.00000
   1155     115.0253      0.00000
   1156     115.0319      0.00000
   1157     115.0397      0.00000
   1158     115.0397      0.00000
   1159     115.0427      0.00000
   1160     115.0427      0.00000
   1161     115.0537      0.00000
   1162     115.0541      0.00000
   1163     115.1780      0.00000
   1164     115.1780      0.00000
   1165     115.2194      0.00000
   1166     115.2216      0.00000
   1167     115.2216      0.00000
   1168     115.2235      0.00000
   1169     115.2273      0.00000
   1170     115.2350      0.00000
   1171     115.2825      0.00000
   1172     115.2860      0.00000
   1173     115.2860      0.00000
   1174     115.3037      0.00000
   1175     115.3037      0.00000
   1176     115.3181      0.00000
   1177     115.3252      0.00000
   1178     115.3949      0.00000
   1179     115.3949      0.00000
   1180     115.3949      0.00000
   1181     115.3956      0.00000
   1182     115.4068      0.00000
   1183     115.4093      0.00000
   1184     115.4184      0.00000
   1185     115.4184      0.00000
   1186     115.4194      0.00000
   1187     115.4194      0.00000
   1188     115.4257      0.00000
   1189     115.4264      0.00000
   1190     116.8886      0.00000
   1191     117.5604      0.00000
   1192     117.5604      0.00000
   1193     117.5657      0.00000
   1194     117.6860      0.00000
   1195     117.6860      0.00000
   1196     117.6917      0.00000
   1197     117.7242      0.00000
   1198     117.7395      0.00000
   1199     117.8212      0.00000
   1200     117.8497      0.00000
   1201     117.8497      0.00000
   1202     117.8761      0.00000
   1203     117.8761      0.00000
   1204     117.8873      0.00000
   1205     117.8900      0.00000
   1206     117.9018      0.00000
   1207     117.9057      0.00000
   1208     117.9082      0.00000
   1209     117.9082      0.00000
   1210     117.9167      0.00000
   1211     117.9167      0.00000
   1212     117.9204      0.00000
   1213     117.9243      0.00000
   1214     119.2011      0.00000
   1215     120.1195      0.00000
   1216     120.2157      0.00000
   1217     120.2157      0.00000
   1218     120.4191      0.00000
   1219     120.4380      0.00000
   1220     120.5230      0.00000
   1221     120.5230      0.00000
   1222     120.5315      0.00000
   1223     120.5795      0.00000
   1224     120.5833      0.00000
   1225     120.5833      0.00000
   1226     120.5974      0.00000
   1227     120.5989      0.00000
   1228     120.5989      0.00000
   1229     120.6138      0.00000
   1230     120.6143      0.00000
   1231     120.6143      0.00000
   1232     120.6336      0.00000
   1233     120.6548      0.00000
   1234     120.6548      0.00000
   1235     120.6599      0.00000
   1236     120.6609      0.00000
   1237     120.6644      0.00000
   1238     121.4747      0.00000
   1239     122.4323      0.00000
   1240     122.4323      0.00000
   1241     122.4437      0.00000
   1242     122.6570      0.00000
   1243     122.8107      0.00000
   1244     122.8161      0.00000
   1245     122.8161      0.00000
   1246     122.9445      0.00000
   1247     122.9615      0.00000
   1248     123.0005      0.00000
   1249     123.0005      0.00000
   1250     123.0417      0.00000
   1251     123.0439      0.00000
   1252     123.1127      0.00000
   1253     123.1127      0.00000
   1254     123.1129      0.00000
   1255     123.1205      0.00000
   1256     123.1205      0.00000
   1257     123.1316      0.00000
   1258     123.1514      0.00000
   1259     123.1630      0.00000
   1260     123.1695      0.00000
   1261     123.1695      0.00000
   1262     123.1943      0.00000
   1263     123.1959      0.00000
   1264     123.1959      0.00000
   1265     123.2094      0.00000
   1266     123.2507      0.00000
   1267     123.2554      0.00000
   1268     123.2554      0.00000
   1269     123.2571      0.00000
   1270     123.2677      0.00000
   1271     123.2834      0.00000
   1272     123.3047      0.00000
   1273     123.3047      0.00000
   1274     123.3240      0.00000
   1275     123.3263      0.00000
   1276     123.3263      0.00000
   1277     123.3427      0.00000
   1278     123.3451      0.00000
   1279     123.3566      0.00000
   1280     123.3671      0.00000
   1281     123.3671      0.00000
   1282     123.3725      0.00000
   1283     123.3725      0.00000
   1284     123.3938      0.00000
   1285     123.3989      0.00000
   1286     123.5063      0.00000
   1287     123.5067      0.00000
   1288     123.5067      0.00000
   1289     123.5074      0.00000
   1290     123.5239      0.00000
   1291     123.5248      0.00000
   1292     123.5248      0.00000
   1293     123.5260      0.00000
   1294     123.5460      0.00000
   1295     123.5522      0.00000
   1296     123.5632      0.00000
   1297     123.5632      0.00000
   1298     123.5673      0.00000
   1299     123.5673      0.00000
   1300     123.5718      0.00000
   1301     123.5756      0.00000
   1302     123.6193      0.00000
   1303     123.6227      0.00000
   1304     123.6292      0.00000
   1305     123.6292      0.00000
   1306     123.6311      0.00000
   1307     123.6311      0.00000
   1308     123.6370      0.00000
   1309     123.6379      0.00000
   1310     125.1452      0.00000
   1311     125.5694      0.00000
   1312     125.7266      0.00000
   1313     125.7266      0.00000
   1314     125.7321      0.00000
   1315     125.8766      0.00000
   1316     125.8920      0.00000
   1317     125.9241      0.00000
   1318     125.9241      0.00000
   1319     125.9328      0.00000
   1320     125.9328      0.00000
   1321     125.9467      0.00000
   1322     125.9880      0.00000
   1323     125.9915      0.00000
   1324     125.9915      0.00000
   1325     126.0116      0.00000
   1326     126.0116      0.00000
   1327     126.0312      0.00000
   1328     126.0359      0.00000
   1329     126.0665      0.00000
   1330     126.0665      0.00000
   1331     126.0702      0.00000
   1332     126.1036      0.00000
   1333     126.1076      0.00000
   1334     126.1693      0.00000
   1335     126.1721      0.00000
   1336     126.2046      0.00000
   1337     126.2047      0.00000
   1338     126.2058      0.00000
   1339     126.2058      0.00000
   1340     126.2090      0.00000
   1341     126.2137      0.00000
   1342     126.2137      0.00000
   1343     126.2146      0.00000
   1344     126.2186      0.00000
   1345     126.2186      0.00000
   1346     126.2211      0.00000
   1347     126.2211      0.00000
   1348     126.2237      0.00000
   1349     126.2376      0.00000
   1350     126.2377      0.00000
   1351     126.2396      0.00000
   1352     126.2396      0.00000
   1353     126.2725      0.00000
   1354     126.3092      0.00000
   1355     126.3303      0.00000
   1356     126.3303      0.00000
   1357     126.3415      0.00000
   1358     129.4178      0.00000
   1359     131.3021      0.00000
   1360     131.3402      0.00000
   1361     131.3402      0.00000
   1362     131.4528      0.00000
   1363     131.4528      0.00000
   1364     131.4631      0.00000
   1365     131.4893      0.00000
   1366     131.7742      0.00000
   1367     133.0010      0.00000
   1368     133.0503      0.00000
   1369     133.0503      0.00000
   1370     133.4769      0.00000
   1371     133.6160      0.00000
   1372     133.8363      0.00000
   1373     133.8620      0.00000
   1374     133.8669      0.00000
   1375     133.8669      0.00000
   1376     133.9181      0.00000
   1377     133.9181      0.00000
   1378     134.0270      0.00000
   1379     134.0296      0.00000
   1380     134.0320      0.00000
   1381     134.0555      0.00000
   1382     134.0555      0.00000
   1383     134.0761      0.00000
   1384     134.0903      0.00000
   1385     134.0903      0.00000
   1386     134.0926      0.00000
   1387     134.1038      0.00000
   1388     134.1038      0.00000
   1389     134.1147      0.00000
   1390     134.1234      0.00000
[...]
  13250     592.0398      0.00000
  13251     592.0411      0.00000
  13252     592.0411      0.00000
  13253     592.0425      0.00000
  13254     592.0435      0.00000
  13255     592.0435      0.00000
  13256     592.0436      0.00000
  13257     592.0447      0.00000
  13258     592.0550      0.00000
  13259     592.0557      0.00000
  13260     592.0558      0.00000
  13261     592.0566      0.00000
  13262     592.0635      0.00000
  13263     592.0692      0.00000
  13264     592.0703      0.00000
  13265     592.0703      0.00000
  13266     592.0759      0.00000
  13267     592.0768      0.00000
  13268     592.0768      0.00000
  13269     592.0768      0.00000
  13270     592.0937      0.00000
  13271     592.0950      0.00000
  13272     592.1099      0.00000
  13273     592.1154      0.00000
  13274     592.1154      0.00000
  13275     592.1155      0.00000
  13276     592.1189      0.00000
  13277     592.1189      0.00000
  13278     592.1202      0.00000
  13279     592.1202      0.00000
  13280     592.1202      0.00000
  13281     592.1208      0.00000
  13282     592.1208      0.00000
  13283     592.1223      0.00000
  13284     592.1345      0.00000
  13285     592.1345      0.00000
  13286     592.1435      0.00000
  13287     592.1445      0.00000
  13288     592.1445      0.00000
  13289     592.1447      0.00000
  13290     592.1978      0.00000
  13291     592.2064      0.00000
  13292     592.2064      0.00000
  13293     592.2461      0.00000
  13294     592.2503      0.00000
  13295     592.2721      0.00000
  13296     592.2721      0.00000
  13297     593.1468      0.00000
  13298     593.1468      0.00000
  13299     593.1597      0.00000
  13300     594.0252      0.00000
  13301     594.2245      0.00000
  13302     594.3106      0.00000
  13303     594.3915      0.00000
  13304     594.3915      0.00000
  13305     594.4003      0.00000
  13306     594.5192      0.00000
  13307     594.5543      0.00000
  13308     594.5544      0.00000
  13309     594.5669      0.00000
  13310     594.5674      0.00000
  13311     594.5674      0.00000
  13312     594.5715      0.00000
  13313     594.5717      0.00000
  13314     594.5724      0.00000
  13315     594.5826      0.00000
  13316     594.5826      0.00000
  13317     594.6001      0.00000
  13318     594.6232      0.00000
  13319     594.6366      0.00000
  13320     594.6425      0.00000
  13321     594.6425      0.00000
  13322     594.6564      0.00000
  13323     594.6644      0.00000
  13324     594.6644      0.00000
  13325     594.6837      0.00000
  13326     594.7112      0.00000
  13327     594.7112      0.00000
  13328     594.7329      0.00000
  13329     594.7411      0.00000
  13330     594.7436      0.00000
  13331     594.7634      0.00000
  13332     594.7642      0.00000
  13333     594.7695      0.00000
  13334     594.7695      0.00000
  13335     594.7727      0.00000
  13336     594.7727      0.00000
  13337     594.7761      0.00000
  13338     594.7778      0.00000
  13339     594.7803      0.00000
  13340     594.7821      0.00000
  13341     594.7844      0.00000
  13342     594.7844      0.00000
  13343     594.7851      0.00000
  13344     594.7851      0.00000
  13345     594.7851      0.00000
  13346     594.7857      0.00000
  13347     594.7917      0.00000
  13348     594.7917      0.00000
  13349     594.7960      0.00000
  13350     594.7974      0.00000
  13351     594.7979      0.00000
  13352     594.7979      0.00000
  13353     594.8003      0.00000
  13354     594.8005      0.00000
  13355     594.8013      0.00000
  13356     594.8014      0.00000
  13357     594.8041      0.00000
  13358     594.8068      0.00000
  13359     594.8075      0.00000
  13360     594.8075      0.00000
  13361     594.8097      0.00000
  13362     594.8245      0.00000
  13363     594.8545      0.00000
  13364     594.8739      0.00000
  13365     594.8739      0.00000
  13366     594.9032      0.00000
  13367     594.9032      0.00000
  13368     594.9351      0.00000
  13369     594.9351      0.00000
  13370     594.9352      0.00000
  13371     594.9352      0.00000
  13372     594.9353      0.00000
  13373     594.9373      0.00000
  13374     594.9373      0.00000
  13375     594.9400      0.00000
  13376     594.9468      0.00000
  13377     594.9808      0.00000
  13378     594.9834      0.00000
  13379     594.9928      0.00000
  13380     594.9928      0.00000
  13381     595.0005      0.00000
  13382     595.0098      0.00000
  13383     595.0098      0.00000
  13384     595.0343      0.00000
  13385     595.0400      0.00000
  13386     595.0400      0.00000
  13387     595.0415      0.00000
  13388     595.0416      0.00000
  13389     595.0472      0.00000
  13390     595.0472      0.00000
  13391     595.0573      0.00000
  13392     595.1007      0.00000
  13393     596.2809      0.00000
  13394     596.3884      0.00000
  13395     596.3967      0.00000
  13396     596.3967      0.00000
  13397     596.5488      0.00000
  13398     597.2368      0.00000
  13399     597.2780      0.00000
  13400     597.2780      0.00000
  13401     597.2826      0.00000
  13402     597.3144      0.00000
  13403     597.3511      0.00000
  13404     597.3511      0.00000
  13405     597.3553      0.00000
  13406     597.3635      0.00000
  13407     597.4096      0.00000
  13408     597.4402      0.00000
  13409     597.4428      0.00000
  13410     597.4428      0.00000
  13411     597.4486      0.00000
  13412     597.4502      0.00000
  13413     597.4502      0.00000
  13414     597.4508      0.00000
  13415     597.4584      0.00000
  13416     597.4593      0.00000
  13417     597.4593      0.00000
  13418     597.4664      0.00000
  13419     597.4757      0.00000
  13420     597.4757      0.00000
  13421     597.4799      0.00000
  13422     597.4799      0.00000
  13423     597.4824      0.00000
  13424     597.4862      0.00000
  13425     597.4862      0.00000
  13426     597.4906      0.00000
  13427     597.4908      0.00000
  13428     597.4985      0.00000
  13429     597.5030      0.00000
  13430     597.5099      0.00000
  13431     597.5099      0.00000
  13432     597.5114      0.00000
  13433     597.5115      0.00000
  13434     597.5146      0.00000
  13435     597.5149      0.00000
  13436     597.5174      0.00000
  13437     597.5174      0.00000
  13438     597.5187      0.00000
  13439     597.5187      0.00000
  13440     597.5217      0.00000
  13441     597.5237      0.00000
  13442     597.5260      0.00000
  13443     597.5260      0.00000
  13444     597.5260      0.00000
  13445     597.5270      0.00000
  13446     597.5291      0.00000
  13447     597.5295      0.00000
  13448     597.5315      0.00000
  13449     597.5315      0.00000
  13450     597.5422      0.00000
  13451     597.5444      0.00000
  13452     597.5444      0.00000
  13453     597.5451      0.00000
  13454     597.5453      0.00000
  13455     597.5549      0.00000
  13456     597.5550      0.00000
  13457     597.5557      0.00000
  13458     597.5564      0.00000
  13459     597.5564      0.00000
  13460     597.5573      0.00000
  13461     597.5663      0.00000
  13462     597.5663      0.00000
  13463     597.5672      0.00000
  13464     597.5704      0.00000
  13465     597.5741      0.00000
  13466     597.5809      0.00000
  13467     597.5840      0.00000
  13468     597.5840      0.00000
  13469     597.5863      0.00000
  13470     597.5869      0.00000
  13471     597.5924      0.00000
  13472     597.5924      0.00000
  13473     597.5926      0.00000
  13474     597.5949      0.00000
  13475     597.5951      0.00000
  13476     597.5985      0.00000
  13477     597.5985      0.00000
  13478     597.5996      0.00000
  13479     597.5996      0.00000
  13480     597.5998      0.00000
  13481     597.6003      0.00000
  13482     597.6137      0.00000
  13483     597.6196      0.00000
  13484     597.6196      0.00000
  13485     597.6196      0.00000
  13486     597.6215      0.00000
  13487     597.6215      0.00000
  13488     597.6217      0.00000
  13489     597.6232      0.00000
  13490     597.6372      0.00000
  13491     597.6394      0.00000
  13492     597.6394      0.00000
  13493     597.6395      0.00000
  13494     597.6399      0.00000
  13495     597.6399      0.00000
  13496     597.6409      0.00000
  13497     597.6410      0.00000
  13498     597.6494      0.00000
  13499     597.6500      0.00000
  13500     597.6500      0.00000
  13501     597.6505      0.00000
  13502     597.6509      0.00000
  13503     597.6509      0.00000
  13504     597.6512      0.00000
  13505     597.6515      0.00000
  13506     597.6585      0.00000
  13507     597.6670      0.00000
  13508     597.6670      0.00000
  13509     597.7634      0.00000
  13510     597.7634      0.00000
  13511     597.7827      0.00000
  13512     597.8118      0.00000
  13513     619.2899      0.00000
  13514     620.4679      0.00000
  13515     623.2191      0.00000
  13516     623.2191      0.00000
  13517     623.7310      0.00000
  13518   10000.0000      0.00000
  13519   10000.0000      0.00000
  13520   10000.0000      0.00000
  13521   10000.0000      0.00000
  13522   10000.0000      0.00000
  13523   10000.0000      0.00000
  13524   10000.0000      0.00000
  13525   10000.0000      0.00000
  13526   10000.0000      0.00000
  13527   10000.0000      0.00000
  13528   10000.0000      0.00000
  13529   10000.0000      0.00000
  13530   10000.0000      0.00000
  13531   10000.0000      0.00000
  13532   10000.0000      0.00000
  13533   10000.0000      0.00000
  13534   10000.0000      0.00000
  13535   10000.0000      0.00000
  13536   10000.0000      0.00000


--------------------------------------------------------------------------------------------------------


 soft charge-density along one line, spin component           1
         0         1         2         3         4         5         6         7         8         9
 total charge-density along one line
 
 pseudopotential strength for first ion, spin component:           1
-45.656 -46.631  16.307  -0.000   0.005  -0.000  -0.000  -0.002
-46.631 -47.627  17.451  -0.000   0.005  -0.000   0.000  -0.003
 16.307  17.451  71.222  -0.000   0.008  -0.000   0.000  -0.175
 -0.000  -0.000  -0.000  -0.107  -0.000  -0.000   1.216  -0.000
  0.005   0.005   0.008  -0.000  -0.107   0.000  -0.000   1.218
 -0.000  -0.000  -0.000  -0.000   0.000  -0.107  -0.000   0.000
 -0.000   0.000   0.000   1.216  -0.000  -0.000 -57.635   0.000
 -0.002  -0.003  -0.175  -0.000   1.218   0.000   0.000 -57.668
 -0.000   0.000   0.000  -0.000   0.000   1.216   0.000  -0.000
 -0.000  -0.000  -0.000   0.648  -0.000  -0.000 -18.127   0.000
  0.139   0.142  -0.004  -0.000   0.651   0.000   0.000 -18.158
 -0.000  -0.000  -0.000  -0.000   0.000   0.648   0.000  -0.000
 -0.000  -0.000  -0.000  -0.000   0.000  -0.000  -0.000  -0.000
 -0.000  -0.000  -0.000  -0.000  -0.000   0.000   0.028  -0.000
  0.001   0.001   0.004  -0.000  -0.000   0.000   0.000   0.033
  0.000   0.000   0.000   0.000  -0.000  -0.000  -0.000  -0.000
  0.000   0.000   0.000  -0.000   0.000  -0.000   0.000  -0.000
  0.000   0.000   0.000   0.000  -0.000  -0.000   0.000   0.000
  0.000   0.000   0.000   0.002   0.000  -0.000  -0.071   0.000
 -0.003  -0.003  -0.014   0.000   0.002   0.000  -0.000  -0.083
 -0.000  -0.000  -0.000  -0.000   0.000   0.002   0.000   0.000
 -0.000  -0.000  -0.000   0.000  -0.000   0.000  -0.000   0.000
  0.000   0.000   0.000   0.000  -0.000  -0.000  -0.000   0.000
  0.000   0.000  -0.000  -0.000  -0.000   0.000   0.000  -0.000
 -0.000  -0.000  -0.000  -0.000   0.000  -0.000   0.004  -0.000
  0.000   0.000   0.000  -0.000  -0.000   0.000   0.000   0.005
 -0.000  -0.000  -0.000  -0.000  -0.000  -0.000  -0.000   0.000
  0.000   0.000  -0.000  -0.000   0.000  -0.000   0.000   0.000
  0.000   0.000  -0.000   0.000   0.000  -0.000   0.000  -0.000
 total augmentation occupancy for first ion, spin component:           1
 15.036 -13.271  -0.032  -0.000   3.394   0.000   0.000   0.049   0.000  -0.000   0.010   0.000  -0.000  -0.000   0.150  -0.000
-13.271  13.513   0.030   0.000  -3.486  -0.000   0.000  -0.043   0.000   0.000  -0.009   0.000   0.000  -0.000  -0.151   0.000
 -0.032   0.030   0.000   0.000  -0.008  -0.000   0.000  -0.000  -0.000   0.000  -0.000  -0.000   0.000  -0.000  -0.000   0.000
 -0.000   0.000   0.000   0.000  -0.000  -0.000   0.000  -0.000   0.000   0.000  -0.000   0.000   0.000  -0.000  -0.000   0.000
  3.394  -3.486  -0.008  -0.000   0.900   0.000  -0.000   0.011  -0.000  -0.000   0.002  -0.000  -0.000   0.000   0.039  -0.000
  0.000  -0.000  -0.000  -0.000   0.000   0.000  -0.000   0.000  -0.000  -0.000   0.000  -0.000  -0.000   0.000   0.000  -0.000
  0.000   0.000   0.000   0.000  -0.000  -0.000   0.000   0.000   0.000   0.000  -0.000   0.000   0.000  -0.000  -0.000   0.000
  0.049  -0.043  -0.000  -0.000   0.011   0.000   0.000   0.000   0.000   0.000   0.000   0.000  -0.000  -0.000   0.000  -0.000
  0.000   0.000  -0.000   0.000  -0.000  -0.000   0.000   0.000   0.000   0.000   0.000   0.000   0.000  -0.000  -0.000   0.000
 -0.000   0.000   0.000   0.000  -0.000  -0.000   0.000   0.000   0.000   0.000  -0.000   0.000   0.000  -0.000  -0.000   0.000
  0.010  -0.009  -0.000  -0.000   0.002   0.000  -0.000   0.000   0.000  -0.000   0.000   0.000  -0.000  -0.000   0.000  -0.000
  0.000   0.000  -0.000   0.000  -0.000  -0.000   0.000   0.000   0.000   0.000   0.000   0.000   0.000  -0.000  -0.000   0.000
 -0.000   0.000   0.000   0.000  -0.000  -0.000   0.000  -0.000   0.000   0.000  -0.000   0.000   0.000  -0.000  -0.000   0.000
 -0.000  -0.000  -0.000  -0.000   0.000   0.000  -0.000  -0.000  -0.000  -0.000  -0.000  -0.000  -0.000   0.000   0.000  -0.000
  0.150  -0.151  -0.000  -0.000   0.039   0.000  -0.000   0.000  -0.000  -0.000   0.000  -0.000  -0.000   0.000   0.002  -0.000
 -0.000   0.000   0.000   0.000  -0.000  -0.000   0.000  -0.000   0.000   0.000  -0.000   0.000   0.000  -0.000  -0.000   0.000
 -0.000   0.000   0.000  -0.000  -0.000  -0.000  -0.000  -0.000  -0.000  -0.000  -0.000  -0.000   0.000   0.000  -0.000   0.000
  0.000  -0.000  -0.000  -0.000   0.000   0.000  -0.000   0.000  -0.000  -0.000   0.000  -0.000  -0.000   0.000   0.000  -0.000
 -0.000   0.000   0.000  -0.000  -0.000  -0.000  -0.000  -0.000  -0.000  -0.000  -0.000  -0.000   0.000   0.000  -0.000   0.000
  0.022  -0.022  -0.000  -0.000   0.006   0.000  -0.000   0.000  -0.000  -0.000   0.000  -0.000  -0.000   0.000   0.000  -0.000
  0.000  -0.000  -0.000  -0.000   0.000   0.000  -0.000   0.000  -0.000  -0.000   0.000  -0.000  -0.000   0.000   0.000  -0.000
  0.000  -0.000  -0.000  -0.000   0.000   0.000  -0.000   0.000  -0.000  -0.000   0.000  -0.000  -0.000   0.000   0.000  -0.000
 -0.000   0.000   0.000   0.000  -0.000  -0.000   0.000  -0.000  -0.000   0.000  -0.000  -0.000   0.000  -0.000  -0.000   0.000
 -0.000   0.000   0.000   0.000  -0.000  -0.000  -0.000  -0.000  -0.000   0.000  -0.000  -0.000   0.000   0.000  -0.000   0.000
  0.000   0.000   0.000   0.000  -0.000  -0.000   0.000   0.000   0.000   0.000  -0.000   0.000   0.000  -0.000  -0.000   0.000
 -0.012   0.012   0.000   0.000  -0.003  -0.000   0.000  -0.000   0.000   0.000  -0.000   0.000   0.000  -0.000  -0.000   0.000
  0.000   0.000  -0.000   0.000  -0.000  -0.000   0.000   0.000   0.000   0.000   0.000   0.000   0.000  -0.000   0.000   0.000
 -0.000  -0.000   0.000  -0.000   0.000   0.000  -0.000  -0.000  -0.000  -0.000  -0.000  -0.000  -0.000   0.000   0.000  -0.000
  0.000  -0.000  -0.000  -0.000   0.000   0.000  -0.000   0.000  -0.000  -0.000   0.000  -0.000  -0.000   0.000   0.000  -0.000


------------------------ aborting loop because EDIFF is reached ----------------------------------------


    CHARGE:  cpu time      0.0115: real time      0.0116
    FORLOC:  cpu time      0.0011: real time      0.0011
    FORHF :  cpu time      0.2089: real time      0.2113
    FORNL :  cpu time      0.2976: real time      0.3002
    FORHAR:  cpu time      0.0301: real time      0.0304
    MIXING:  cpu time      0.0002: real time      0.0002
    OFIELD:  cpu time      0.0001: real time      0.0001

 VOLUME and BASIS-vectors are now :
 -----------------------------------------------------------------------------
  energy-cutoff  :      600.00
  volume of cell :      406.54
      direct lattice vectors                 reciprocal lattice vectors
     7.408002056  0.000000000  0.000000000     0.134989163  0.000000000  0.000000000
     0.000000000  7.408002056  0.000000000     0.000000000  0.134989163  0.000000000
     0.000000000  0.000000000  7.408002056     0.000000000  0.000000000  0.134989163

  length of vectors
     7.408002056  7.408002056  7.408002056     0.134989163  0.134989163  0.134989163


 FORCES acting on ions
    electron-ion (+dipol)            ewald-force                    non-local-force                 convergence-correction
 -----------------------------------------------------------------------------------------------
   -.116E-08 -.158E-08 0.249E+02   0.337E-18 0.508E-17 -.156E+02   0.299E-08 -.224E-08 -.447E+01   0.597E-09 0.109E-08 0.222E-02
   0.229E-10 -.660E-10 -.145E+02   0.449E-17 0.264E-17 0.156E+02   -.767E-11 -.634E-11 -.873E+00   0.696E-10 -.443E-10 0.872E-04
 -----------------------------------------------------------------------------------------------
   -.113E-08 -.165E-08 0.104E+02   0.483E-17 0.772E-17 0.000E+00   0.298E-08 -.224E-08 -.534E+01   0.666E-09 0.104E-08 0.231E-02
 
 
 POSITION                                       TOTAL-FORCE (eV/Angst)
 -----------------------------------------------------------------------------------
      0.00000      0.00000      0.00000        -0.000000     -0.000000     -0.157199
      0.00000      0.00000      1.62106         0.000000      0.000000      0.157199
 -----------------------------------------------------------------------------------
    total drift:                               -0.000000     -0.000000      0.001062


--------------------------------------------------------------------------------------------------------



  FREE ENERGIE OF THE ION-ELECTRON SYSTEM (eV)
  ---------------------------------------------------
  free  energy   TOTEN  =        -9.70787292 eV

  energy  without entropy=       -9.70787292  energy(sigma->0) =       -9.70787292
 


--------------------------------------------------------------------------------------------------------


    POTLOK:  cpu time      0.0464: real time      0.0469


--------------------------------------------------------------------------------------------------------


 writing wavefunctions
     LOOP+:  cpu time    210.4604: real time    212.1498
    4ORBIT:  cpu time      0.0000: real time      0.0000

 total amount of memory used by VASP MPI-rank0   318519. kBytes
=======================================================================

   base      :      30000. kBytes
   nonl-proj :       3356. kBytes
   fftplans  :       2328. kBytes
   grid      :      11145. kBytes
   one-center:         40. kBytes
   HF        :        336. kBytes
   nonlr-proj:        267. kBytes
   wavefun   :      30645. kBytes
   fock_wrk  :     240402. kBytes
 
  
  
 General timing and accounting informations for this job:
 ========================================================
  
                  Total CPU time used (sec):      228.298
                            User time (sec):      225.371
                          System time (sec):        2.927
                         Elapsed time (sec):      230.290
  
                   Maximum memory used (kb):     1082820.
                   Average memory used (kb):          N/A
  
                          Minor page faults:       525887
                          Major page faults:         7715
                 Voluntary context switches:         4136
