 vasp.6.3.0 20Jan22 (build Mar 06 2023 08:06:32) gamma-only                     
  
 executed on             LinuxIFC date 2025.05.22  12:00:37
 running on   48 total cores
 distrk:  each k-point on   48 cores,    1 groups
 distr:  one band on NCORE=   1 cores,   48 groups


--------------------------------------------------------------------------------------------------------


 INCAR:
   ENCUT = 600
   SIGMA = 0.001
   EDIFF = 1E-6
   LHFCALC = .TRUE.
   AEXX = 1.0
   ISYM = -1
   ALGO = sub
   NELM = 1
   NBANDS = 8409
   ISYM = -1
   PREC = Accurate

 POTCAR:    PAW_PBE Li_AE_GW 25Mar2010            
 POTCAR:    PAW_PBE H_GW 21Apr2008                
 -----------------------------------------------------------------------------
|                                                                             |
|           W    W    AA    RRRRR   N    N  II  N    N   GGGG   !!!           |
|           W    W   A  A   R    R  NN   N  II  NN   N  G    G  !!!           |
|           W    W  A    A  R    R  N N  N  II  N N  N  G       !!!           |
|           W WW W  AAAAAA  RRRRR   N  N N  II  N  N N  G  GGG   !            |
|           WW  WW  A    A  R   R   N   NN  II  N   NN  G    G                |
|           W    W  A    A  R    R  N    N  II  N    N   GGGG   !!!           |
|                                                                             |
|     For optimal performance we recommend to set                             |
|       NCORE = 2 up to number-of-cores-per-socket                            |
|     NCORE specifies how many cores store one orbital (NPAR=cpu/NCORE).      |
|     This setting can greatly improve the performance of VASP for DFT.       |
|     The default, NCORE=1 might be grossly inefficient on modern             |
|     multi-core architectures or massively parallel machines. Do your        |
|     own testing! More info at https://www.vasp.at/wiki/index.php/NCORE      |
|     Unfortunately you need to use the default for GW and RPA                |
|     calculations (for HF NCORE is supported but not extensively tested      |
|     yet).                                                                   |
|                                                                             |
 -----------------------------------------------------------------------------

 POTCAR:    PAW_PBE Li_AE_GW 25Mar2010            
   SHA256 =  ae13e6342699fe0ac99e545771c218bb29ee312c520ed4d7aae94e33ddcb6cd4 Li_AE_GW/POTCAR       
   COPYR  = (c) Copyright 25Mar2010 Georg Kresse                                                    
   COPYR  = This file is part of the software VASP. Any use, copying, and all other rights are regul
   COPYR  = If you do not have a valid VASP license, you may not use, copy or distribute this file. 
   VRHFIN =Li: 1s2s                                                                                 
   LEXCH  = PE                                                                                      
   EATOM  =   200.9989 eV,   14.7730 Ry                                                             
                                                                                                    
   TITEL  = PAW_PBE Li_AE_GW 25Mar2010                                                              
   LULTRA =        F    use ultrasoft PP ?                                                          
   IUNSCR =        0    unscreen: 0-lin 1-nonlin 2-no                                               
   RPACOR =    0.000    partial core radius                                                         
   POMASS =    7.010; ZVAL   =    3.000    mass and valenz                                          
   RCORE  =    1.500    outmost cutoff radius                                                       
   RWIGS  =    1.600; RWIGS  =    0.847    wigner-seitz radius (au A)                               
   ENMAX  =  433.699; ENMIN  =  325.274 eV                                                          
   RCLOC  =    1.003    cutoff for local pot                                                        
   LCOR   =        T    correct aug charges                                                         
   LPAW   =        T    paw PP                                                                      
   EAUG   = 1534.740                                                                                
   RMAX   =    1.536    core radius for proj-oper                                                   
   RAUG   =    1.300    factor for augmentation sphere                                              
   RDEP   =    1.520    radius for radial grids                                                     
   RDEPT  =    1.300    core radius for aug-charge                                                  
                                                                                                    
   Atomic configuration                                                                             
    5 entries                                                                                       
     n  l   j            E        occ.                                                              
     1  0  0.50       -53.3604   2.0000                                                             
     1  0  0.50       -52.0001   0.0000                                                             
     2  1  0.50        -1.5636   1.0000                                                             
     3  2  1.50        -1.3606   0.0000                                                             
     4  3  2.50        -1.3606   0.0000                                                             
   Description                                                                                      
     l       E           TYP  RCUT    TYP  RCUT                                                     
     0    -53.3603633     23  1.200                                                                 
     0    -52.0001064     23  1.200                                                                 
     0    176.8757380     23  1.300                                                                 
     1     -1.5635925     23  1.500                                                                 
     1    122.4524340     23  1.500                                                                 
     1    299.3281720     23  1.500                                                                 
     2     54.4233040     23  1.500                                                                 
     2    204.0873900     23  1.500                                                                 
     3    122.4524340     23  1.500                                                                 
  local pseudopotential read in
  kinetic energy density of atom read in
  atomic valenz-charges read in
  non local Contribution for L=           0  read in
    real space projection operators read in
  non local Contribution for L=           0  read in
    real space projection operators read in
  non local Contribution for L=           0  read in
    real space projection operators read in
  non local Contribution for L=           1  read in
    real space projection operators read in
  non local Contribution for L=           1  read in
    real space projection operators read in
  non local Contribution for L=           1  read in
    real space projection operators read in
  non local Contribution for L=           2  read in
    real space projection operators read in
  non local Contribution for L=           2  read in
    real space projection operators read in
  non local Contribution for L=           3  read in
    real space projection operators read in
    PAW grid and wavefunctions read in
 
   number of l-projection  operators is LMAX  =           9
   number of lm-projection operators is LMMAX =          29
 
 POTCAR:    PAW_PBE H_GW 21Apr2008                
   SHA256 =  cecc88617a3d1ece9865646f5d462fc0f44fd1f68d6f2eb08f18a2e421902afb H_GW/POTCAR           
   COPYR  = (c) Copyright 21Apr2008 Georg Kresse                                                    
   COPYR  = This file is part of the software VASP. Any use, copying, and all other rights are regul
   COPYR  = If you do not have a valid VASP license, you may not use, copy or distribute this file. 
   VRHFIN =H: ultrasoft test                                                                        
   LEXCH  = PE                                                                                      
   EATOM  =    12.4884 eV,    0.9179 Ry                                                             
                                                                                                    
   TITEL  = PAW_PBE H_GW 21Apr2008                                                                  
   LULTRA =        F    use ultrasoft PP ?                                                          
   IUNSCR =        0    unscreen: 0-lin 1-nonlin 2-no                                               
   RPACOR =    0.000    partial core radius                                                         
   POMASS =    1.000; ZVAL   =    1.000    mass and valenz                                          
   RCORE  =    1.100    outmost cutoff radius                                                       
   RWIGS  =    1.100; RWIGS  =    0.582    wigner-seitz radius (au A)                               
   ENMAX  =  300.000; ENMIN  =  250.000 eV                                                          
   RCLOC  =    0.701    cutoff for local pot                                                        
   LCOR   =        T    correct aug charges                                                         
   LPAW   =        T    paw PP                                                                      
   EAUG   =  500.000                                                                                
   RMAX   =    1.123    core radius for proj-oper                                                   
   RAUG   =    1.200    factor for augmentation sphere                                              
   RDEP   =    1.112    radius for radial grids                                                     
   RDEPT  =    1.100    core radius for aug-charge                                                  
                                                                                                    
   Atomic configuration                                                                             
    3 entries                                                                                       
     n  l   j            E        occ.                                                              
     1  0  0.50        -6.4927   1.0000                                                             
     2  1  0.50        -3.4015   0.0000                                                             
     3  2  1.50        13.6058   0.0000                                                             
   Description                                                                                      
     l       E           TYP  RCUT    TYP  RCUT                                                     
     0     -6.4927495     23  0.950                                                                 
     0      6.8029130     23  0.950                                                                 
     1     -4.0817478     23  1.100                                                                 
     1    108.8466080     23  1.100                                                                 
     2     81.6349560     23  1.100                                                                 
  local pseudopotential read in
  kinetic energy density of atom read in
  atomic valenz-charges read in
  non local Contribution for L=           0  read in
    real space projection operators read in
  non local Contribution for L=           0  read in
    real space projection operators read in
  non local Contribution for L=           1  read in
    real space projection operators read in
  non local Contribution for L=           1  read in
    real space projection operators read in
  non local Contribution for L=           2  read in
    real space projection operators read in
    PAW grid and wavefunctions read in
 
   number of l-projection  operators is LMAX  =           5
   number of lm-projection operators is LMMAX =          13
 
  PAW_PBE Li_AE_GW 25Mar2010            :
 energy of atom  1       EATOM= -200.9989
 kinetic energy error for atom=    0.0082 (will be added to EATOM!!)
  PAW_PBE H_GW 21Apr2008                :
 energy of atom  2       EATOM=  -12.4884
 kinetic energy error for atom=    0.0035 (will be added to EATOM!!)
 
 
 POSCAR: LiH
  positions in cartesian coordinates
  No initial velocities read in
 exchange correlation table for  LEXCH =        8
   RHO(1)=    0.500       N(1)  =     2000
   RHO(2)=  100.500       N(2)  =     4000
 


--------------------------------------------------------------------------------------------------------


 ion  position               nearest neighbor table
   1  0.000  0.000  0.000-   2 1.62
   2  0.000  0.000  0.255-   1 1.62
 

IMPORTANT INFORMATION: All symmetrisations will be switched off!
NOSYMM: (Re-)initialisation of all symmetry stuff for point group C_1.


----------------------------------------------------------------------------------------

                                     Primitive cell                                     

  volume of cell :     256.0500

  direct lattice vectors                    reciprocal lattice vectors
     6.350017565  0.000000000  0.000000000     0.157479879  0.000000000  0.000000000
     0.000000000  6.350017565  0.000000000     0.000000000  0.157479879  0.000000000
     0.000000000  0.000000000  6.350017565     0.000000000  0.000000000  0.157479879

  length of vectors
     6.350017565  6.350017565  6.350017565     0.157479879  0.157479879  0.157479879

  position of ions in fractional coordinates (direct lattice)
     0.000000000  0.000000000  0.000000000
     0.000000000  0.000000000  0.255284797

  ion indices of the primitive-cell ions
   primitive index   ion index
                 1           1
                 2           2

----------------------------------------------------------------------------------------

 
 
 KPOINTS: Automatically generated mesh            

Automatic generation of k-mesh.
 Grid dimensions read from file:
 generate k-points for:    1    1    1

 Generating k-lattice:

  Cartesian coordinates                     Fractional coordinates (reciprocal lattice)
     0.157479879  0.000000000  0.000000000     1.000000000  0.000000000  0.000000000
     0.000000000  0.157479879  0.000000000     0.000000000  1.000000000  0.000000000
     0.000000000  0.000000000  0.157479879     0.000000000  0.000000000  1.000000000

  Length of vectors
     0.157479879  0.157479879  0.157479879

  Shift w.r.t. Gamma in fractional coordinates (k-lattice)
     0.000000000  0.000000000  0.000000000

 
 Subroutine IBZKPT returns following result:
 ===========================================
 
 Found      1 irreducible k-points:
 
 Following reciprocal coordinates:
            Coordinates               Weight
  0.000000  0.000000  0.000000      1.000000
 
 Following cartesian coordinates:
            Coordinates               Weight
  0.000000  0.000000  0.000000      1.000000
 
 WARNING: full set of k-points will be restricted to regular points only.

 
 Subroutine IBZKPT_HF returns following result:
 ==============================================
 
 Found      1 k-points in 1st BZ
 the following      1 k-points will be used (e.g. in the exchange kernel)
 Following reciprocal coordinates:   # in IRBZ
  0.000000  0.000000  0.000000    1.00000000   1 t-inv F
 -----------------------------------------------------------------------------
|                                                                             |
|           W    W    AA    RRRRR   N    N  II  N    N   GGGG   !!!           |
|           W    W   A  A   R    R  NN   N  II  NN   N  G    G  !!!           |
|           W    W  A    A  R    R  N N  N  II  N N  N  G       !!!           |
|           W WW W  AAAAAA  RRRRR   N  N N  II  N  N N  G  GGG   !            |
|           WW  WW  A    A  R   R   N   NN  II  N   NN  G    G                |
|           W    W  A    A  R    R  N    N  II  N    N   GGGG   !!!           |
|                                                                             |
|     The number of bands has been changed from the values supplied in        |
|     the INCAR file. This is a result of running the parallel version.       |
|     The orbitals not found in the WAVECAR file will be initialized with     |
|     random numbers, which is usually adequate. For correlated               |
|     calculations, however, you should redo the groundstate calculation.     |
|     I found NBANDS = 8409. Now, NBANDS = 8448.                              |
|                                                                             |
 -----------------------------------------------------------------------------



--------------------------------------------------------------------------------------------------------




 Dimension of arrays:
   k-points           NKPTS =      1   k-points in BZ     NKDIM =      1   number of bands    NBANDS=   8448
   number of dos      NEDOS =    301   number of ions     NIONS =      2
   non local maximal  LDIM  =      9   non local SUM 2l+1 LMDIM =     29
   total plane-waves  NPLWV = 157464
   max r-space proj   IRMAX =      1   max aug-charges    IRDMAX=   7733
   dimension x,y,z NGX =    54 NGY =   54 NGZ =   54
   dimension x,y,z NGXF=   108 NGYF=  108 NGZF=  108
   support grid    NGXF=   108 NGYF=  108 NGZF=  108
   ions per type =               1   1
   NGX,Y,Z   is equivalent  to a cutoff of  14.14, 14.14, 14.14 a.u.
   NGXF,Y,Z  is equivalent  to a cutoff of  28.27, 28.27, 28.27 a.u.

 SYSTEM =  unknown system                          
 POSCAR =  LiH                                     

 Startparameter for this run:
   NWRITE =      2    write-flag & timer
   PREC   = accura    normal or accurate (medium, high low for compatibility)
   ISTART =      1    job   : 0-new  1-cont  2-samecut
   ICHARG =      0    charge: 1-file 2-atom 10-const
   ISPIN  =      1    spin polarized calculation?
   LNONCOLLINEAR =      F non collinear calculations
   LSORBIT =      F    spin-orbit coupling
   INIWAV =      1    electr: 0-lowe 1-rand  2-diag
   LASPH  =      F    aspherical Exc in radial PAW
 Electronic Relaxation 1
   ENCUT  =  600.0 eV  44.10 Ry    6.64 a.u.  12.68 12.68 12.68*2*pi/ulx,y,z
   ENINI  =  600.0     initial cutoff
   ENAUG  = 1534.7 eV  augmentation charge cutoff
   NELM   =      1;   NELMIN=  2; NELMDL=  0     # of ELM steps 
   EDIFF  = 0.1E-05   stopping-criterion for ELM
   LREAL  =      F    real-space projection
   NLSPLINE    = F    spline interpolate recip. space projectors
   LCOMPAT=      F    compatible to vasp.4.4
   GGA_COMPAT  = T    GGA compatible to vasp.4.4-vasp.4.6
   LMAXPAW     = -100 max onsite density
   LMAXMIX     =    2 max onsite mixed and CHGCAR
   VOSKOWN=      0    Vosko Wilk Nusair interpolation
   ROPT   =    0.00000   0.00000
 Ionic relaxation
   EDIFFG = 0.1E-04   stopping-criterion for IOM
   NSW    =      0    number of steps for IOM
   NBLOCK =      1;   KBLOCK =      1    inner block; outer block 
   IBRION =     -1    ionic relax: 0-MD 1-quasi-New 2-CG
   NFREE  =      0    steps in history (QN), initial steepest desc. (CG)
   ISIF   =      0    stress and relaxation
   IWAVPR =     10    prediction:  0-non 1-charg 2-wave 3-comb
   ISYM   =     -1    0-nonsym 1-usesym 2-fastsym
   LCORR  =      T    Harris-Foulkes like correction to forces

   POTIM  = 0.5000    time-step for ionic-motion
   TEIN   =    0.0    initial temperature
   TEBEG  =    0.0;   TEEND  =   0.0 temperature during run
   SMASS  =  -3.00    Nose mass-parameter (am)
   estimated Nose-frequenzy (Omega)   =  0.10E-29 period in steps = 0.13E+47 mass=  -0.921E-27a.u.
   SCALEE = 1.0000    scale energy and forces
   NPACO  =    256;   APACO  = 10.0  distance and # of slots for P.C.
   PSTRESS=    0.0 pullay stress

  Mass of Ions in am
   POMASS =   7.01  1.00
  Ionic Valenz
   ZVAL   =   3.00  1.00
  Atomic Wigner-Seitz radii
   RWIGS  =  -1.00 -1.00
  virtual crystal weights 
   VCA    =   1.00  1.00
   NELECT =       4.0000    total number of electrons
   NUPDOWN=      -1.0000    fix difference up-down

 DOS related values:
   EMIN   =  10.00;   EMAX   =-10.00  energy-range for DOS
   EFERMI =   0.00
   ISMEAR =     1;   SIGMA  =   0.00  broadening in eV -4-tet -1-fermi 0-gaus

 Electronic relaxation 2 (details)
   IALGO  =      4    algorithm
   LDIAG  =      T    sub-space diagonalisation (order eigenvalues)
   LSUBROT=      F    optimize rotation matrix (better conditioning)
   TURBO    =      0    0=normal 1=particle mesh
   IRESTART =      0    0=no restart 2=restart with 2 vectors
   NREBOOT  =      0    no. of reboots
   NMIN     =      0    reboot dimension
   EREF     =   0.00    reference energy to select bands
   IMIX   =      1    mixing-type and parameters
     AMIX     =   0.40;   BMIX     =  1.00
     AMIX_MAG =   1.60;   BMIX_MAG =  1.00
     AMIN     =   0.10
     WC   =   100.;   INIMIX=   1;  MIXPRE=   1;  MAXMIX= -45

 Intra band minimization:
   WEIMIN = 0.0000     energy-eigenvalue tresh-hold
   EBREAK =  0.30E-10  absolut break condition
   DEPER  =   0.30     relativ break condition  

   TIME   =   0.40     timestep for ELM

  volume/ion in A,a.u.               =     128.02       863.96
  Fermi-wavevector in a.u.,A,eV,Ry     =   0.409248  0.773367  2.278757  0.167484
  Thomas-Fermi vector in A             =   1.364103
 
 Write flags
   LWAVE        =      T    write WAVECAR
   LDOWNSAMPLE  =      F    k-point downsampling of WAVECAR
   LCHARG       =      T    write CHGCAR
   LVTOT        =      F    write LOCPOT, total local potential
   LVHAR        =      F    write LOCPOT, Hartree potential only
   LELF         =      F    write electronic localiz. function (ELF)
   LORBIT       =      0    0 simple, 1 ext, 2 COOP (PROOUT), +10 PAW based schemes


 Dipole corrections
   LMONO  =      F    monopole corrections only (constant potential shift)
   LDIPOL =      F    correct potential (dipole corrections)
   IDIPOL =      0    1-x, 2-y, 3-z, 4-all directions 
   EPSILON=  1.0000000 bulk dielectric constant

 Exchange correlation treatment:
   GGA     =    --    GGA type
   LEXCH   =     8    internal setting for exchange type
   LIBXC   =     F    Libxc                    
   VOSKOWN =     0    Vosko Wilk Nusair interpolation
   EXXOEP  =     0    0=HF, 1=EXX-LHF (local Hartree Fock) 2=EXX OEP
   LHFCALC =     T    Hartree Fock is set to
   LSYMGRAD=     F    symmetrize gradient (conserves proper symmetry)
   PRECFOCK=normal    Normal, Fast or Accurate (Low or Medium for compatibility)
   LRHFCALC=     F    long range Hartree Fock
   LRSCOR  =     F    long range correlation only (use DFT for short range part)
   LTHOMAS =     F    Thomas Fermi screening in HF
   LMODELHF=     F    short range full HF, long range fraction AEXX
   LFOCKACE=     T    use Adeptively-Compressed-Exchange operator
   ENCUT4O =  -1.0   cutoff for four orbital integrals eV
   LMAXFOCK=     4    L truncation for augmentation on plane wave grid
   LMAXFOCKAE=  -1    L truncation for all-electron charge restoration on plane wave grid
   NMAXFOCKAE=   1    number of basis functions for all-electron charge restoration
   LFOCKAEDFT=     F  apply the AE augmentation even for DFT
   NKREDX  =     1    reduce k-point grid by
   NKREDY  =     1    reduce k-point grid by
   NKREDZ  =     1    reduce k-point grid by
   SHIFTRED=     F    shift reduced grid of Gamma
   HFKIDENT=     F    idential grid for each k-point
   ODDONLY =     F    use only odd q-grid points
   EVENONLY=     F    use only even q-grid points
   HFALPHA =   -1.0000 decay constant for conv. correction
   MCALPHA =    0.0000 extent of test-charge in conv. correction in multipole expansion
   AEXX    =    1.0000 exact exchange contribution
   HFSCREEN=    0.0000 screening length (either q_TF or 0.3 A-1)
   HFSCREENC=   0.0000 screening length for correlation (either q_TF or 0.3 A-1)
   HFRCUT  =    0.0000 spherical cutoff for potential kernel
   HFRCUTSOFT=    0.0000 smooth spherical cutoff for potential kernel
   SLABRCUT=    0.0000 cutoff in one direction for potential kernel
   SLABRCUT_DIRECTION=   3 cutoff direction for SLABRCUT
   ERFCRAY_SCREEN=    0.0000 screening factor for erfc+rayleigh like screening for potential kernel
   RAYLEXP=    0.0000  rayleigh exponent in erfc+rayleigh like screening
   ALDAX   =    0.0000 LDA exchange part
   AGGAX   =    0.0000 GGA exchange part
   ALDAC   =    0.0000 LDA correlation
   AGGAC   =    0.0000 GGA correlation
   ENCUTFOCK=  -1.0 apply spherical cutoff to Coloumb kernel
   NBANDSGWLOW=     1    first orbital included in HF term
   NBLOCK_FOCK=    64    blocking factor in FOCK_ACC

 Linear response parameters
   LEPSILON=     F    determine dielectric tensor
   LRPA    =     F    only Hartree local field effects (RPA)
   LNABLA  =     F    use nabla operator in PAW spheres
   LVEL    =     F    velocity operator in full k-point grid
   CSHIFT  =0.1000    complex shift for real part using Kramers Kronig
   OMEGAMAX=  -1.0    maximum frequency
   DEG_THRESHOLD= 0.2000000E-02 threshold for treating states as degnerate
   RTIME   =   -0.100 relaxation time in fs
  (WPLASMAI=    0.000 imaginary part of plasma frequency in eV, 0.658/RTIME)
   DFIELD  = 0.0000000 0.0000000 0.0000000 field for delta impulse in time
 
  Optional k-point grid parameters
   LKPOINTS_OPT  =     F    use optional k-point grid
   KPOINTS_OPT_MODE=     1    mode for optional k-point grid
 
 Orbital magnetization related:
   ORBITALMAG=     F  switch on orbital magnetization
   LCHIMAG   =     F  perturbation theory with respect to B field
   DQ        =  0.001000  dq finite difference perturbation B field
   LLRAUG    =     F  two centre corrections for induced B field



--------------------------------------------------------------------------------------------------------


 Static calculation
 charge density and potential will be updated during run
 non-spin polarized calculation
 Subrot: only subspace diagonalization (rotation)
    band-by band algorithm
 perform sub-space diagonalisation
    before iterative eigenvector-optimisation
 Kerker-like  mixing scheme
 using additional bands         8446
 reciprocal scheme for non local part
 calculate Harris-corrections to forces 
   (improved forces if not selfconsistent)
 use gradient corrections 
 use of overlap-Matrix (Vanderbilt PP)
 Methfessel and Paxton  Order N= 1 SIGMA  =   0.00


--------------------------------------------------------------------------------------------------------


  energy-cutoff  :      600.00
  volume of cell :      256.05
      direct lattice vectors                 reciprocal lattice vectors
     6.350017565  0.000000000  0.000000000     0.157479879  0.000000000  0.000000000
     0.000000000  6.350017565  0.000000000     0.000000000  0.157479879  0.000000000
     0.000000000  0.000000000  6.350017565     0.000000000  0.000000000  0.157479879

  length of vectors
     6.350017565  6.350017565  6.350017565     0.157479879  0.157479879  0.157479879


 
 old parameters found on file WAVECAR:
  energy-cutoff  :      600.00
  volume of cell :      256.05
      direct lattice vectors                 reciprocal lattice vectors
     6.350017565  0.000000000  0.000000000     0.157479879  0.000000000  0.000000000
     0.000000000  6.350017565  0.000000000     0.000000000  0.157479879  0.000000000
     0.000000000  0.000000000  6.350017565     0.000000000  0.000000000  0.157479879

  length of vectors

 
 k-points in units of 2pi/SCALE and weight: Automatically generated mesh            
   0.00000000  0.00000000  0.00000000       1.000
 
 k-points in reciprocal lattice and weights: Automatically generated mesh            
   0.00000000  0.00000000  0.00000000       1.000
 
 position of ions in fractional coordinates (direct lattice) 
   0.00000000  0.00000000  0.00000000
   0.00000000  0.00000000  0.25528480
 
 position of ions in cartesian coordinates  (Angst):
   0.00000000  0.00000000  0.00000000
   0.00000000  0.00000000  1.62106295
 


--------------------------------------------------------------------------------------------------------


 use serial FFT for orbitals x direction half grid
 k-point   1 :   0.0000 0.0000 0.0000  plane waves:    4205

 maximum and minimum number of plane-waves per node :      4205     4205

 maximum number of plane-waves:      4205
 maximum index in each direction: 
   IXMAX=   12   IYMAX=   12   IZMAX=   12
   IXMIN=    0   IYMIN=  -12   IZMIN=  -12


 serial   3D FFT for wavefunctions
 parallel 3D FFT for charge:
    minimum data exchange during FFTs selected (reduces bandwidth)


 FFT grid for exact exchange (Hartree Fock) 
  NGX = 40; NGY = 40; NGZ = 40

 use serial FFT for orbitals x direction half grid
 
 Radii for the augmentation spheres in the non-local exchange
 for species   1 augmentation radius   0.885 (default was   0.708)
       energy cutoff for augmentation   2400.0
 for species   2 augmentation radius   0.735 (default was   0.588)
       energy cutoff for augmentation   2400.0
 Maximum index for augmentation-charges in exchange          739
  SETUP_FOCK is finished

 total amount of memory used by VASP MPI-rank0    54812. kBytes
=======================================================================

   base      :      30000. kBytes
   nonl-proj :       2095. kBytes
   fftplans  :       1794. kBytes
   grid      :       8330. kBytes
   one-center:         40. kBytes
   HF        :        336. kBytes
   nonlr-proj:        255. kBytes
   wavefun   :      11962. kBytes
 
     INWAV:  cpu time      1.6785: real time      1.6886
 charge density for first step will be calculated from the start-wavefunctions


--------------------------------------------------------------------------------------------------------


 Maximum index for augmentation-charges          442 (set IRDMAX)


--------------------------------------------------------------------------------------------------------


 initial charge from wavefunction
    FEWALD:  cpu time      0.0003: real time      0.0003


--------------------------------------- Iteration      1(   1)  ---------------------------------------


    POTLOK:  cpu time      0.0184: real time      0.0187
    SETDIJ:  cpu time      0.0243: real time      0.0245
    EDDIAG:  cpu time     74.0010: real time     74.5707
       DOS:  cpu time      0.0010: real time      0.0010
    --------------------------------------------
      LOOP:  cpu time     74.0448: real time     74.6149

 eigenvalue-minimisations  :     0
 total energy-change (2. order) :-0.1004678E+02  ( 0.0000000E+00)
 number of electron       4.0000002 magnetization 
 augmentation part        0.8565225 magnetization 

 Free energy of the ion-electron system (eV)
  ---------------------------------------------------
  alpha Z        PSCENC =         0.29779427
  Ewald energy   TEWEN  =       -23.80394200
  -Hartree energ DENC   =       -83.84422629
  -exchange      EXHF   =        49.97233551
  -V(xc)+E(xc)   XCENC  =         0.00000000
  PAW double counting   =       102.08530576     -111.91248428
  entropy T*S    EENTRO =         0.00000000
  eigenvalues    EBANDS =      -150.89586507
  atomic energy  EATOM  =       208.05430547
  Solvation  Ediel_sol  =         0.00000000
  ---------------------------------------------------
  free energy    TOTEN  =       -10.04677663 eV

  energy without entropy =      -10.04677663  energy(sigma->0) =      -10.04677663
  exchange ACFDT corr.  =         0.00000000  see jH, gK, PRB 81, 115126


--------------------------------------------------------------------------------------------------------




 average (electrostatic) potential at core
  the test charge radii are     0.7079  0.5883
  (the norm of the test charge is              1.0000)
       1 -21.5055       2 -18.5339
 
 
 
 E-fermi :  -7.2926     XC(G=0):   0.0000     alpha+bet : -0.9633

 Fermi energy:        -7.2926494045

 k-point     1 :       0.0000    0.0000    0.0000
  band No.  band energies     occupation 
      1     -66.5654      2.00000
      2      -8.8825      2.00000
      3       0.5427      0.00000
      4       3.1680      0.00000
      5       3.1680      0.00000
      6       3.2814      0.00000
      7       3.7958      0.00000
      8       3.8332      0.00000
      9       5.4307      0.00000
     10       6.6205      0.00000
     11       6.6205      0.00000
     12       7.2543      0.00000
     13       7.4071      0.00000
     14       7.4349      0.00000
     15       7.4349      0.00000
     16       7.6804      0.00000
     17       7.6905      0.00000
     18       7.7798      0.00000
     19       7.7803      0.00000
     20       7.7803      0.00000
     21      10.2967      0.00000
     22      10.9210      0.00000
     23      10.9211      0.00000
     24      11.1950      0.00000
     25      11.1950      0.00000
     26      11.2852      0.00000
     27      11.4562      0.00000
     28      11.6443      0.00000
     29      13.4024      0.00000
     30      14.2344      0.00000
     31      14.2344      0.00000
     32      14.3773      0.00000
     33      14.6691      0.00000
     34      15.3824      0.00000
     35      16.8063      0.00000
     36      17.1193      0.00000
     37      17.2184      0.00000
     38      17.2188      0.00000
     39      18.2078      0.00000
     40      18.2770      0.00000
     41      18.3530      0.00000
     42      18.3530      0.00000
     43      18.4782      0.00000
     44      18.5419      0.00000
     45      18.5419      0.00000
     46      18.6318      0.00000
     47      18.7472      0.00000
     48      18.7473      0.00000
     49      18.8061      0.00000
     50      18.9004      0.00000
     51      18.9004      0.00000
     52      18.9123      0.00000
     53      18.9474      0.00000
     54      19.0529      0.00000
     55      19.1005      0.00000
     56      19.1005      0.00000
     57      19.2023      0.00000
     58      19.8038      0.00000
     59      21.3075      0.00000
     60      21.5670      0.00000
     61      21.5671      0.00000
     62      21.8926      0.00000
     63      21.9275      0.00000
     64      21.9275      0.00000
     65      22.0440      0.00000
     66      22.2598      0.00000
     67      22.4706      0.00000
     68      22.4769      0.00000
     69      22.5535      0.00000
     70      22.5536      0.00000
     71      22.5708      0.00000
     72      22.5709      0.00000
     73      22.6253      0.00000
     74      22.6447      0.00000
     75      22.7016      0.00000
     76      22.7016      0.00000
     77      22.7515      0.00000
     78      22.7515      0.00000
     79      22.7599      0.00000
     80      22.7674      0.00000
     81      22.8328      0.00000
     82      23.9014      0.00000
     83      28.4298      0.00000
     84      29.0245      0.00000
     85      29.0246      0.00000
     86      29.2770      0.00000
     87      29.5902      0.00000
     88      29.6860      0.00000
     89      29.6860      0.00000
     90      29.7685      0.00000
     91      29.7685      0.00000
     92      29.8841      0.00000
     93      29.9313      0.00000
     94      30.5400      0.00000
     95      31.8016      0.00000
     96      32.1668      0.00000
     97      32.1669      0.00000
     98      32.4522      0.00000
     99      33.0536      0.00000
    100      33.0536      0.00000
    101      33.0747      0.00000
    102      33.1131      0.00000
    103      33.1683      0.00000
    104      33.2482      0.00000
    105      33.2485      0.00000
    106      33.3043      0.00000
    107      33.4361      0.00000
    108      33.6968      0.00000
    109      33.6968      0.00000
    110      33.7217      0.00000
    111      33.7279      0.00000
    112      33.7558      0.00000
    113      33.7880      0.00000
    114      33.7881      0.00000
    115      33.8569      0.00000
    116      33.8600      0.00000
    117      33.8668      0.00000
    118      33.8802      0.00000
    119      33.8804      0.00000
    120      33.9175      0.00000
    121      33.9290      0.00000
    122      33.9291      0.00000
    123      34.0019      0.00000
    124      34.8313      0.00000
    125      35.9788      0.00000
    126      36.2740      0.00000
    127      36.2744      0.00000
    128      36.4594      0.00000
    129      36.5973      0.00000
    130      37.1240      0.00000
    131      37.1805      0.00000
    132      37.2242      0.00000
    133      37.2243      0.00000
    134      37.3032      0.00000
    135      37.3248      0.00000
    136      37.3249      0.00000
    137      37.3696      0.00000
    138      37.4069      0.00000
    139      37.4069      0.00000
    140      37.4235      0.00000
    141      37.4237      0.00000
    142      37.5591      0.00000
    143      37.6134      0.00000
    144      37.6141      0.00000
    145      37.6756      0.00000
    146      37.6757      0.00000
    147      37.7519      0.00000
    148      38.8117      0.00000
    149      40.2300      0.00000
    150      40.5257      0.00000
    151      40.5258      0.00000
    152      40.5304      0.00000
    153      40.7318      0.00000
    154      40.9129      0.00000
    155      40.9229      0.00000
    156      40.9229      0.00000
    157      41.0034      0.00000
    158      41.0616      0.00000
    159      41.0616      0.00000
    160      41.0907      0.00000
    161      41.0908      0.00000
    162      41.1299      0.00000
    163      41.1300      0.00000
    164      41.1614      0.00000
    165      41.1644      0.00000
    166      41.2315      0.00000
    167      41.2551      0.00000
    168      41.2783      0.00000
    169      41.3431      0.00000
    170      41.3432      0.00000
    171      41.3745      0.00000
    172      42.7442      0.00000
    173      44.4335      0.00000
    174      44.4453      0.00000
    175      44.4454      0.00000
    176      44.7058      0.00000
    177      44.7058      0.00000
    178      44.7137      0.00000
    179      44.7945      0.00000
    180      45.2283      0.00000
    181      46.9705      0.00000
    182      47.3187      0.00000
    183      47.3187      0.00000
    184      47.8675      0.00000
    185      47.8849      0.00000
    186      47.9934      0.00000
    187      47.9940      0.00000
    188      48.1176      0.00000
    189      48.1184      0.00000
    190      48.1622      0.00000
    191      48.2463      0.00000
    192      48.3532      0.00000
    193      48.5775      0.00000
    194      48.5868      0.00000
    195      48.5871      0.00000
    196      48.6002      0.00000
    197      48.6360      0.00000
    198      48.7072      0.00000
    199      48.7075      0.00000
    200      48.7798      0.00000
    201      48.7798      0.00000
    202      48.8216      0.00000
    203      48.8469      0.00000
    204      49.7671      0.00000
    205      50.9453      0.00000
    206      51.0293      0.00000
    207      51.0294      0.00000
    208      51.1918      0.00000
    209      51.5757      0.00000
    210      51.5757      0.00000
    211      51.6107      0.00000
    212      51.8131      0.00000
    213      51.8632      0.00000
    214      51.8776      0.00000
    215      51.9731      0.00000
    216      51.9731      0.00000
    217      51.9921      0.00000
    218      52.0345      0.00000
    219      52.0346      0.00000
    220      52.1185      0.00000
    221      52.1186      0.00000
    222      52.1393      0.00000
    223      52.1449      0.00000
    224      52.1449      0.00000
    225      52.2012      0.00000
    226      52.2186      0.00000
    227      52.2885      0.00000
    228      52.3046      0.00000
    229      52.4250      0.00000
    230      52.4439      0.00000
    231      52.4439      0.00000
    232      52.4735      0.00000
    233      52.4744      0.00000
    234      52.4876      0.00000
    235      52.4998      0.00000
    236      52.5164      0.00000
    237      52.5329      0.00000
    238      52.5330      0.00000
    239      52.5602      0.00000
    240      52.5990      0.00000
    241      52.5993      0.00000
    242      52.6100      0.00000
    243      52.6407      0.00000
    244      52.6684      0.00000
    245      52.7060      0.00000
    246      52.7099      0.00000
    247      52.7101      0.00000
    248      52.7284      0.00000
    249      52.7507      0.00000
    250      52.7507      0.00000
    251      52.7698      0.00000
    252      55.1499      0.00000
    253      58.8641      0.00000
    254      58.8645      0.00000
    255      58.9633      0.00000
    256      59.1850      0.00000
    257      59.2876      0.00000
    258      59.9855      0.00000
    259      61.5211      0.00000
    260      61.6054      0.00000
    261      61.6060      0.00000
    262      61.7143      0.00000
    263      62.5065      0.00000
    264      62.6463      0.00000
    265      62.6804      0.00000
    266      62.6867      0.00000
    267      62.6867      0.00000
    268      62.7689      0.00000
    269      62.8472      0.00000
    270      62.8477      0.00000
    271      62.9043      0.00000
    272      63.2945      0.00000
    273      63.3124      0.00000
    274      63.3130      0.00000
    275      63.3535      0.00000
    276      63.3577      0.00000
    277      63.3721      0.00000
    278      63.3726      0.00000
    279      63.4276      0.00000
    280      63.5011      0.00000
    281      63.5013      0.00000
    282      63.5143      0.00000
    283      63.5143      0.00000
    284      63.5521      0.00000
    285      63.6176      0.00000
    286      63.6183      0.00000
    287      63.6253      0.00000
    288      63.6536      0.00000
    289      63.6576      0.00000
    290      63.6602      0.00000
    291      63.6605      0.00000
    292      63.6752      0.00000
    293      63.6819      0.00000
    294      63.6839      0.00000
    295      63.6839      0.00000
    296      63.7184      0.00000
    297      63.7255      0.00000
    298      63.7258      0.00000
    299      63.7457      0.00000
    300      63.7458      0.00000
    301      63.7628      0.00000
    302      63.8210      0.00000
    303      63.8415      0.00000
    304      63.8425      0.00000
    305      63.8515      0.00000
    306      65.2400      0.00000
    307      66.2902      0.00000
    308      66.3468      0.00000
    309      66.3469      0.00000
    310      66.5544      0.00000
    311      66.7687      0.00000
    312      66.7933      0.00000
    313      66.8523      0.00000
    314      66.9128      0.00000
    315      66.9130      0.00000
    316      66.9728      0.00000
    317      66.9734      0.00000
    318      67.0664      0.00000
    319      67.0665      0.00000
    320      67.0842      0.00000
    321      67.0852      0.00000
    322      67.1145      0.00000
    323      67.1482      0.00000
    324      67.1484      0.00000
    325      67.1826      0.00000
    326      67.2025      0.00000
    327      67.2458      0.00000
    328      67.2464      0.00000
    329      67.2616      0.00000
    330      67.2616      0.00000
    331      67.2767      0.00000
    332      67.2803      0.00000
    333      67.2803      0.00000
    334      67.2913      0.00000
    335      67.2917      0.00000
    336      67.3687      0.00000
    337      67.3709      0.00000
    338      67.4304      0.00000
    339      67.4581      0.00000
    340      67.4581      0.00000
    341      67.4742      0.00000
    342      69.2435      0.00000
    343      70.1280      0.00000
    344      70.3804      0.00000
    345      70.3807      0.00000
    346      70.5816      0.00000
    347      70.5816      0.00000
    348      70.7186      0.00000
    349      70.7503      0.00000
    350      70.8048      0.00000
    351      70.8072      0.00000
    352      70.8075      0.00000
    353      70.8136      0.00000
    354      70.8501      0.00000
    355      70.9593      0.00000
    356      70.9896      0.00000
    357      71.0031      0.00000
    358      71.0031      0.00000
    359      71.0374      0.00000
    360      71.0374      0.00000
    361      71.0396      0.00000
    362      71.0402      0.00000
    363      71.0562      0.00000
    364      71.0710      0.00000
    365      71.0711      0.00000
    366      72.5520      0.00000
    367      73.7290      0.00000
    368      73.9545      0.00000
    369      73.9550      0.00000
    370      74.0553      0.00000
    371      74.3019      0.00000
    372      74.3285      0.00000
    373      74.3376      0.00000
    374      74.4245      0.00000
    375      74.4247      0.00000
    376      74.5045      0.00000
    377      74.5151      0.00000
    378      74.5157      0.00000
    379      74.5551      0.00000
    380      74.5560      0.00000
    381      74.5560      0.00000
    382      74.5894      0.00000
    383      74.5919      0.00000
    384      74.5919      0.00000
    385      74.6322      0.00000
    386      74.6322      0.00000
    387      74.6424      0.00000
    388      74.7412      0.00000
    389      74.7459      0.00000
    390      76.0687      0.00000
    391      77.1386      0.00000
    392      77.3285      0.00000
    393      77.3285      0.00000
    394      77.4453      0.00000
    395      77.8709      0.00000
    396      77.8916      0.00000
    397      77.8916      0.00000
    398      77.8998      0.00000
    399      77.9767      0.00000
    400      78.0570      0.00000
    401      78.0576      0.00000
    402      78.1195      0.00000
    403      78.1212      0.00000
    404      78.1397      0.00000
    405      78.1550      0.00000
    406      78.1552      0.00000
    407      78.1683      0.00000
    408      78.1944      0.00000
    409      78.2938      0.00000
    410      78.2939      0.00000
    411      78.3074      0.00000
    412      78.3352      0.00000
    413      78.3586      0.00000
    414      78.3741      0.00000
    415      78.4741      0.00000
    416      78.4749      0.00000
    417      78.5271      0.00000
    418      78.5302      0.00000
    419      78.5918      0.00000
    420      78.6002      0.00000
    421      78.6006      0.00000
    422      78.6007      0.00000
    423      78.6024      0.00000
    424      78.6025      0.00000
    425      78.6331      0.00000
    426      78.6345      0.00000
    427      78.6405      0.00000
    428      78.6410      0.00000
    429      78.6596      0.00000
    430      78.7034      0.00000
    431      78.7036      0.00000
    432      78.7155      0.00000
    433      78.7199      0.00000
    434      78.7206      0.00000
    435      78.7889      0.00000
    436      78.7890      0.00000
    437      78.8148      0.00000
    438      80.5317      0.00000
    439      81.1267      0.00000
    440      81.2865      0.00000
    441      81.2866      0.00000
    442      81.4263      0.00000
    443      81.4263      0.00000
    444      81.4722      0.00000
    445      81.5489      0.00000
    446      82.1802      0.00000
    447      82.2750      0.00000
    448      82.2752      0.00000
    449      82.2800      0.00000
    450      82.2817      0.00000
    451      82.2922      0.00000
    452      82.2925      0.00000
    453      82.3106      0.00000
    454      82.3119      0.00000
    455      82.3261      0.00000
    456      82.3262      0.00000
    457      82.3361      0.00000
    458      82.3625      0.00000
    459      82.3891      0.00000
    460      82.3892      0.00000
    461      82.4145      0.00000
    462      84.9092      0.00000
    463      88.5527      0.00000
    464      88.7382      0.00000
    465      88.7387      0.00000
    466      88.9328      0.00000
    467      89.3038      0.00000
    468      89.3453      0.00000
    469      89.3453      0.00000
    470      89.3877      0.00000
    471      89.4545      0.00000
    472      89.4549      0.00000
    473      89.4638      0.00000
    474      89.4844      0.00000
    475      89.5294      0.00000
    476      89.5294      0.00000
    477      89.5770      0.00000
    478      89.5786      0.00000
    479      89.5892      0.00000
    480      89.5904      0.00000
    481      89.6076      0.00000
    482      89.6188      0.00000
    483      89.6268      0.00000
    484      89.6268      0.00000
    485      89.6480      0.00000
    486      90.3506      0.00000
    487      91.6230      0.00000
    488      91.6235      0.00000
    489      91.9506      0.00000
    490      92.4161      0.00000
    491      92.4767      0.00000
    492      92.5268      0.00000
    493      92.7183      0.00000
    494      92.7184      0.00000
    495      92.7533      0.00000
    496      92.7796      0.00000
    497      92.7800      0.00000
    498      92.8674      0.00000
    499      92.9016      0.00000
    500      92.9607      0.00000
    501      92.9612      0.00000
    502      92.9852      0.00000
    503      93.0065      0.00000
    504      93.3547      0.00000
    505      93.3594      0.00000
    506      93.3599      0.00000
    507      93.3646      0.00000
    508      93.4222      0.00000
    509      93.4913      0.00000
    510      93.5026      0.00000
    511      93.5027      0.00000
    512      93.5299      0.00000
    513      93.5301      0.00000
    514      93.5570      0.00000
    515      93.5686      0.00000
    516      94.5013      0.00000
    517      95.2177      0.00000
    518      95.5434      0.00000
    519      95.5439      0.00000
    520      95.8819      0.00000
    521      95.9659      0.00000
    522      96.0180      0.00000
    523      96.3575      0.00000
    524      96.3576      0.00000
    525      96.4129      0.00000
    526      96.4860      0.00000
    527      96.4980      0.00000
    528      96.4984      0.00000
    529      96.6082      0.00000
    530      96.6563      0.00000
    531      96.6703      0.00000
    532      96.6714      0.00000
    533      96.6760      0.00000
    534      96.7400      0.00000
    535      96.7409      0.00000
    536      96.7409      0.00000
    537      96.8333      0.00000
    538      96.8857      0.00000
    539      96.8904      0.00000
    540      96.9077      0.00000
    541      96.9078      0.00000
    542      96.9154      0.00000
    543      96.9156      0.00000
    544      96.9504      0.00000
    545      96.9706      0.00000
    546      96.9709      0.00000
    547      96.9773      0.00000
    548      96.9830      0.00000
    549      97.0015      0.00000
    550      97.0454      0.00000
    551      97.0534      0.00000
    552      97.0534      0.00000
    553      97.0618      0.00000
    554      97.0822      0.00000
    555      97.0827      0.00000
    556      97.1131      0.00000
    557      97.1132      0.00000
    558      97.1305      0.00000
    559      97.1811      0.00000
    560      97.1917      0.00000
    561      97.1982      0.00000
    562      97.1982      0.00000
    563      97.2041      0.00000
    564      97.2238      0.00000
    565      97.2292      0.00000
    566      97.2292      0.00000
    567      97.2329      0.00000
    568      97.2330      0.00000
    569      97.2482      0.00000
    570      97.3112      0.00000
    571      97.3187      0.00000
    572      97.3431      0.00000
    573      97.3440      0.00000
    574      97.3483      0.00000
    575      97.3497      0.00000
    576      97.3498      0.00000
    577      97.3582      0.00000
    578      97.3805      0.00000
    579      97.3806      0.00000
    580      97.3830      0.00000
    581      97.3830      0.00000
    582      97.3995      0.00000
    583      97.4003      0.00000
    584      97.4353      0.00000
    585      97.4397      0.00000
    586      97.4402      0.00000
    587      97.4420      0.00000
    588      99.4947      0.00000
    589     100.1117      0.00000
    590     100.3120      0.00000
    591     100.3125      0.00000
    592     100.3538      0.00000
    593     100.4586      0.00000
    594     100.4795      0.00000
    595     100.6025      0.00000
    596     100.6025      0.00000
    597     100.6339      0.00000
    598     100.6342      0.00000
    599     100.6461      0.00000
    600     100.6462      0.00000
    601     100.6652      0.00000
    602     100.6911      0.00000
    603     100.6942      0.00000
    604     100.6942      0.00000
    605     100.7597      0.00000
    606     100.7957      0.00000
    607     100.7958      0.00000
    608     100.8059      0.00000
    609     100.8063      0.00000
    610     100.8063      0.00000
    611     100.8092      0.00000
    612     100.8098      0.00000
    613     100.8098      0.00000
    614     100.9446      0.00000
    615     100.9451      0.00000
    616     101.0278      0.00000
    617     101.0366      0.00000
    618     101.0367      0.00000
    619     101.0443      0.00000
    620     103.7377      0.00000
    621     106.3508      0.00000
    622     106.3539      0.00000
    623     106.3540      0.00000
    624     106.7993      0.00000
    625     107.1614      0.00000
    626     107.1797      0.00000
    627     107.1797      0.00000
    628     107.4332      0.00000
    629     107.4689      0.00000
    630     107.5744      0.00000
    631     107.7293      0.00000
    632     107.7301      0.00000
    633     107.7961      0.00000
    634     107.7965      0.00000
    635     107.8557      0.00000
    636     107.8679      0.00000
    637     107.8680      0.00000
    638     107.8819      0.00000
    639     107.9051      0.00000
    640     107.9401      0.00000
    641     107.9447      0.00000
    642     107.9451      0.00000
    643     107.9544      0.00000
    644     108.0084      0.00000
    645     108.0104      0.00000
    646     108.0331      0.00000
    647     108.0407      0.00000
    648     108.0412      0.00000
    649     108.0584      0.00000
    650     108.0862      0.00000
    651     108.0865      0.00000
    652     108.1088      0.00000
    653     108.1288      0.00000
    654     108.1527      0.00000
    655     108.1531      0.00000
    656     108.1754      0.00000
    657     108.1907      0.00000
    658     108.1908      0.00000
    659     108.2076      0.00000
    660     108.2271      0.00000
    661     108.2274      0.00000
    662     108.2428      0.00000
    663     108.2499      0.00000
    664     108.2558      0.00000
    665     108.2558      0.00000
    666     108.2971      0.00000
    667     108.3001      0.00000
    668     108.4356      0.00000
    669     108.4373      0.00000
    670     108.4386      0.00000
    671     108.4420      0.00000
    672     108.4460      0.00000
    673     108.4467      0.00000
    674     108.4497      0.00000
    675     108.4500      0.00000
    676     108.4548      0.00000
    677     108.4830      0.00000
    678     108.4831      0.00000
    679     108.4931      0.00000
    680     108.4990      0.00000
    681     108.5165      0.00000
    682     108.5170      0.00000
    683     108.5323      0.00000
    684     108.6465      0.00000
    685     108.6558      0.00000
    686     108.6590      0.00000
    687     108.6601      0.00000
    688     108.6662      0.00000
    689     108.6666      0.00000
    690     108.6697      0.00000
    691     108.6744      0.00000
    692     110.4744      0.00000
    693     110.9412      0.00000
    694     111.1740      0.00000
    695     111.1768      0.00000
    696     111.3409      0.00000
    697     111.3771      0.00000
    698     111.5644      0.00000
    699     111.5645      0.00000
    700     111.6240      0.00000
    701     111.6508      0.00000
    702     111.6780      0.00000
    703     111.6781      0.00000
    704     111.6931      0.00000
    705     111.7066      0.00000
    706     111.7077      0.00000
    707     111.7123      0.00000
    708     111.7475      0.00000
    709     111.7476      0.00000
    710     111.8615      0.00000
    711     111.8832      0.00000
    712     111.8833      0.00000
    713     111.9007      0.00000
    714     111.9303      0.00000
    715     111.9543      0.00000
    716     111.9560      0.00000
    717     112.0574      0.00000
    718     112.0589      0.00000
    719     112.0950      0.00000
    720     112.1020      0.00000
    721     112.1329      0.00000
    722     112.1769      0.00000
    723     112.1770      0.00000
    724     112.1770      0.00000
    725     112.1771      0.00000
    726     112.2092      0.00000
    727     112.2093      0.00000
    728     112.2102      0.00000
    729     112.2299      0.00000
    730     112.2314      0.00000
    731     112.2562      0.00000
    732     112.2635      0.00000
    733     112.2745      0.00000
    734     112.2747      0.00000
    735     112.2843      0.00000
    736     112.3199      0.00000
    737     112.3507      0.00000
    738     112.3507      0.00000
    739     112.3692      0.00000
    740     116.4545      0.00000
    741     118.7493      0.00000
    742     118.7503      0.00000
    743     118.8907      0.00000
    744     118.9997      0.00000
    745     119.1393      0.00000
    746     119.1845      0.00000
    747     119.1846      0.00000
    748     119.2073      0.00000
    749     119.2089      0.00000
    750     119.2584      0.00000
    751     119.2813      0.00000
    752     120.1358      0.00000
    753     121.7890      0.00000
    754     121.9239      0.00000
    755     121.9244      0.00000
    756     122.3529      0.00000
    757     122.5445      0.00000
    758     122.5446      0.00000
    759     122.5996      0.00000
    760     122.7678      0.00000
    761     122.8021      0.00000
    762     122.8022      0.00000
    763     122.8091      0.00000
    764     122.8758      0.00000
    765     122.9505      0.00000
    766     122.9967      0.00000
    767     122.9968      0.00000
    768     123.0026      0.00000
    769     123.0496      0.00000
    770     123.0556      0.00000
    771     123.0558      0.00000
    772     123.0660      0.00000
    773     123.0662      0.00000
    774     123.0680      0.00000
    775     123.0867      0.00000
    776     123.0966      0.00000
    777     123.1080      0.00000
    778     123.1083      0.00000
    779     123.1359      0.00000
    780     123.1431      0.00000
    781     123.1434      0.00000
    782     123.1590      0.00000
    783     123.1655      0.00000
    784     123.1656      0.00000
    785     123.1677      0.00000
    786     123.1842      0.00000
    787     123.1844      0.00000
    788     123.2673      0.00000
    789     123.2675      0.00000
    790     123.2718      0.00000
    791     123.2876      0.00000
    792     123.2903      0.00000
    793     123.2903      0.00000
    794     123.2961      0.00000
    795     123.2964      0.00000
    796     123.3311      0.00000
    797     123.3451      0.00000
    798     123.3455      0.00000
    799     123.3544      0.00000
    800     124.8315      0.00000
    801     125.6407      0.00000
    802     125.7057      0.00000
    803     125.7061      0.00000
    804     126.0520      0.00000
    805     126.0592      0.00000
    806     126.0593      0.00000
    807     126.2038      0.00000
    808     126.2055      0.00000
    809     126.4860      0.00000
    810     126.5330      0.00000
    811     126.5344      0.00000
    812     126.5464      0.00000
    813     126.5761      0.00000
    814     126.5885      0.00000
    815     126.6635      0.00000
    816     126.6636      0.00000
    817     126.7060      0.00000
    818     126.7404      0.00000
    819     126.7405      0.00000
    820     126.7547      0.00000
    821     126.7602      0.00000
    822     126.7731      0.00000
    823     126.7733      0.00000
    824     126.7777      0.00000
    825     126.7833      0.00000
    826     126.7835      0.00000
    827     126.7977      0.00000
    828     126.7998      0.00000
    829     126.7999      0.00000
    830     126.8714      0.00000
    831     126.8761      0.00000
    832     127.0639      0.00000
    833     127.0687      0.00000
    834     127.0693      0.00000
    835     127.0693      0.00000
    836     127.0726      0.00000
    837     127.0733      0.00000
    838     127.0746      0.00000
    839     127.0777      0.00000
    840     127.1195      0.00000
    841     127.1317      0.00000
    842     127.1331      0.00000
    843     127.1337      0.00000
    844     127.1465      0.00000
    845     127.1505      0.00000
    846     127.1536      0.00000
    847     127.1537      0.00000
    848     128.8680      0.00000
    849     129.7215      0.00000
    850     129.9455      0.00000
    851     129.9457      0.00000
    852     130.0387      0.00000
    853     130.2344      0.00000
    854     130.2897      0.00000
    855     130.2897      0.00000
    856     130.2998      0.00000
    857     130.3303      0.00000
    858     130.3479      0.00000
    859     130.3482      0.00000
    860     130.4062      0.00000
    861     130.4192      0.00000
    862     130.4198      0.00000
    863     130.4502      0.00000
    864     130.4507      0.00000
    865     130.4569      0.00000
    866     130.5625      0.00000
    867     130.5728      0.00000
    868     130.5773      0.00000
    869     130.5851      0.00000
    870     130.5897      0.00000
    871     130.5899      0.00000
    872     130.6046      0.00000
    873     130.6114      0.00000
    874     130.6199      0.00000
    875     130.6200      0.00000
    876     130.6607      0.00000
    877     130.6783      0.00000
    878     130.7019      0.00000
    879     130.7019      0.00000
    880     130.7133      0.00000
    881     130.7133      0.00000
    882     130.7157      0.00000
    883     130.7269      0.00000
    884     130.7296      0.00000
    885     130.7351      0.00000
    886     130.7551      0.00000
    887     130.7551      0.00000
    888     130.7577      0.00000
    889     130.7586      0.00000
    890     130.7789      0.00000
    891     130.7807      0.00000
    892     130.8305      0.00000
    893     130.8477      0.00000
    894     130.8478      0.00000
    895     130.8601      0.00000
    896     132.7230      0.00000
    897     133.5360      0.00000
    898     133.5402      0.00000
    899     133.6335      0.00000
    900     133.7085      0.00000
    901     133.7522      0.00000
    902     133.9724      0.00000
    903     134.0435      0.00000
    904     134.0966      0.00000
    905     134.0974      0.00000
    906     134.1150      0.00000
    907     134.1150      0.00000
    908     134.1452      0.00000
    909     134.1556      0.00000
    910     134.2042      0.00000
    911     134.2043      0.00000
    912     134.2104      0.00000
    913     134.2806      0.00000
    914     134.3405      0.00000
    915     134.3466      0.00000
    916     134.3493      0.00000
    917     134.3507      0.00000
    918     134.3507      0.00000
    919     134.3661      0.00000
    920     134.3846      0.00000
    921     134.3849      0.00000
    922     134.3886      0.00000
    923     134.3887      0.00000
    924     134.4059      0.00000
    925     134.4062      0.00000
    926     136.0103      0.00000
    927     136.7138      0.00000
    928     136.8848      0.00000
    929     136.8881      0.00000
    930     136.8885      0.00000
    931     137.0314      0.00000
    932     137.9498      0.00000
    933     137.9574      0.00000
    934     137.9575      0.00000
    935     137.9703      0.00000
    936     137.9846      0.00000
    937     138.0455      0.00000
    938     138.0455      0.00000
    939     138.0650      0.00000
    940     138.1413      0.00000
    941     138.1418      0.00000
    942     138.1458      0.00000
    943     138.1459      0.00000
    944     138.3330      0.00000
    945     138.3339      0.00000
    946     138.3556      0.00000
    947     138.4176      0.00000
    948     138.4179      0.00000
    949     138.4435      0.00000
    950     139.2148      0.00000
    951     140.5262      0.00000
    952     140.5543      0.00000
    953     140.5556      0.00000
    954     141.0119      0.00000
    955     141.1224      0.00000
    956     141.1565      0.00000
    957     141.1592      0.00000
    958     141.1592      0.00000
    959     141.1893      0.00000
    960     141.3507      0.00000
    961     141.3895      0.00000
    962     141.3896      0.00000
    963     141.3911      0.00000
    964     141.4470      0.00000
    965     141.4473      0.00000
    966     141.4510      0.00000
    967     141.4515      0.00000
    968     141.4614      0.00000
    969     141.5047      0.00000
    970     141.5298      0.00000
    971     141.5300      0.00000
    972     141.5574      0.00000
    973     141.5595      0.00000
    974     141.5836      0.00000
    975     141.5849      0.00000
    976     141.6399      0.00000
    977     141.6450      0.00000
    978     141.6457      0.00000
    979     141.6849      0.00000
    980     141.7204      0.00000
    981     141.7220      0.00000
    982     141.7240      0.00000
    983     141.7860      0.00000
    984     141.8648      0.00000
    985     141.8681      0.00000
    986     141.8687      0.00000
    987     141.8696      0.00000
    988     141.8699      0.00000
    989     141.8741      0.00000
    990     141.8742      0.00000
    991     141.8743      0.00000
    992     141.9745      0.00000
    993     141.9766      0.00000
    994     141.9767      0.00000
    995     141.9833      0.00000
    996     141.9840      0.00000
    997     141.9847      0.00000
    998     141.9913      0.00000
    999     141.9918      0.00000
   1000     141.9930      0.00000
   1001     141.9937      0.00000
   1002     141.9937      0.00000
   1003     141.9941      0.00000
   1004     141.9954      0.00000
   1005     142.0061      0.00000
   1006     142.0062      0.00000
   1007     142.0228      0.00000
   1008     142.0228      0.00000
   1009     142.0531      0.00000
   1010     142.0769      0.00000
   1011     142.0801      0.00000
   1012     142.0805      0.00000
   1013     142.0836      0.00000
   1014     142.0905      0.00000
   1015     142.0915      0.00000
   1016     142.0995      0.00000
   1017     142.1006      0.00000
   1018     142.1103      0.00000
   1019     142.1125      0.00000
   1020     142.1129      0.00000
   1021     142.1252      0.00000
   1022     146.1223      0.00000
   1023     148.2716      0.00000
   1024     148.3675      0.00000
   1025     148.3676      0.00000
   1026     148.4712      0.00000
   1027     148.7504      0.00000
   1028     148.9079      0.00000
   1029     148.9747      0.00000
   1030     148.9756      0.00000
   1031     149.0105      0.00000
   1032     149.0294      0.00000
   1033     149.0537      0.00000
   1034     149.0562      0.00000
   1035     149.1268      0.00000
   1036     149.1275      0.00000
   1037     149.1332      0.00000
   1038     149.1844      0.00000
   1039     149.1871      0.00000
   1040     149.1875      0.00000
   1041     149.2076      0.00000
   1042     149.2320      0.00000
   1043     149.2321      0.00000
   1044     149.3368      0.00000
   1045     149.3374      0.00000
   1046     149.9319      0.00000
   1047     151.0825      0.00000
   1048     151.0841      0.00000
   1049     151.0891      0.00000
   1050     151.6473      0.00000
   1051     151.7397      0.00000
   1052     151.8418      0.00000
   1053     151.8419      0.00000
   1054     152.1432      0.00000
   1055     152.1531      0.00000
   1056     152.1653      0.00000
   1057     152.2249      0.00000
   1058     152.2250      0.00000
   1059     152.2299      0.00000
   1060     152.3300      0.00000
   1061     152.3429      0.00000
   1062     152.3443      0.00000
   1063     152.4583      0.00000
   1064     152.4677      0.00000
   1065     152.4682      0.00000
   1066     152.4751      0.00000
   1067     152.5678      0.00000
   1068     152.5894      0.00000
   1069     152.5986      0.00000
   1070     152.6003      0.00000
   1071     152.6650      0.00000
   1072     152.6719      0.00000
   1073     152.6724      0.00000
   1074     152.6976      0.00000
   1075     152.7295      0.00000
   1076     152.7302      0.00000
   1077     152.7484      0.00000
   1078     152.7500      0.00000
   1079     152.7506      0.00000
   1080     152.7602      0.00000
   1081     152.7753      0.00000
   1082     152.7964      0.00000
   1083     152.7965      0.00000
   1084     152.8989      0.00000
   1085     152.9062      0.00000
   1086     152.9063      0.00000
   1087     152.9147      0.00000
   1088     152.9447      0.00000
   1089     152.9787      0.00000
   1090     152.9799      0.00000
   1091     153.0161      0.00000
   1092     153.0168      0.00000
   1093     153.0179      0.00000
   1094     153.0515      0.00000
   1095     153.0640      0.00000
   1096     153.0652      0.00000
   1097     153.1069      0.00000
   1098     153.1157      0.00000
   1099     153.1159      0.00000
   1100     153.1528      0.00000
   1101     153.1553      0.00000
   1102     153.1555      0.00000
   1103     153.1688      0.00000
   1104     153.1719      0.00000
   1105     153.1725      0.00000
   1106     153.1730      0.00000
   1107     153.1733      0.00000
   1108     153.1858      0.00000
   1109     153.1859      0.00000
   1110     153.1864      0.00000
   1111     153.1950      0.00000
   1112     153.1959      0.00000
   1113     153.1960      0.00000
   1114     153.2118      0.00000
   1115     153.2124      0.00000
   1116     153.2160      0.00000
   1117     153.2234      0.00000
   1118     153.2236      0.00000
   1119     153.2412      0.00000
   1120     153.2412      0.00000
   1121     153.2504      0.00000
   1122     153.2548      0.00000
   1123     153.2668      0.00000
   1124     153.2774      0.00000
   1125     153.2858      0.00000
   1126     153.2868      0.00000
   1127     153.2902      0.00000
   1128     153.2906      0.00000
   1129     153.3024      0.00000
   1130     153.3071      0.00000
   1131     153.3072      0.00000
   1132     153.3096      0.00000
   1133     153.3166      0.00000
   1134     153.3178      0.00000
   1135     153.3185      0.00000
   1136     153.3185      0.00000
   1137     153.3186      0.00000
   1138     153.3756      0.00000
   1139     153.3842      0.00000
   1140     153.3844      0.00000
   1141     153.3933      0.00000
   1142     155.4731      0.00000
   1143     155.8505      0.00000
   1144     155.9775      0.00000
   1145     155.9804      0.00000
   1146     156.1063      0.00000
   1147     156.1064      0.00000
   1148     156.2131      0.00000
   1149     156.2148      0.00000
   1150     156.2826      0.00000
   1151     156.3145      0.00000
   1152     156.3156      0.00000
   1153     156.3196      0.00000
   1154     156.4790      0.00000
   1155     156.5446      0.00000
   1156     156.5753      0.00000
   1157     156.5753      0.00000
   1158     156.5785      0.00000
   1159     156.5896      0.00000
   1160     156.5898      0.00000
   1161     156.6066      0.00000
   1162     156.6070      0.00000
   1163     156.6287      0.00000
   1164     156.6288      0.00000
   1165     156.6761      0.00000
   1166     156.7794      0.00000
   1167     156.8079      0.00000
   1168     156.8476      0.00000
   1169     156.8488      0.00000
   1170     156.8545      0.00000
   1171     156.8591      0.00000
   1172     156.8594      0.00000
   1173     156.8637      0.00000
   1174     156.8670      0.00000
   1175     156.8671      0.00000
   1176     156.8945      0.00000
   1177     156.8994      0.00000
   1178     157.0398      0.00000
   1179     157.0401      0.00000
   1180     157.0405      0.00000
   1181     157.0411      0.00000
   1182     157.0459      0.00000
   1183     157.0478      0.00000
   1184     157.0594      0.00000
   1185     157.0596      0.00000
   1186     157.0609      0.00000
   1187     157.0616      0.00000
   1188     157.0700      0.00000
   1189     157.0713      0.00000
   1190     159.3503      0.00000
   1191     159.9558      0.00000
   1192     160.0383      0.00000
   1193     160.0392      0.00000
   1194     160.1565      0.00000
   1195     160.1566      0.00000
   1196     160.1959      0.00000
   1197     160.2178      0.00000
   1198     160.2389      0.00000
   1199     160.3278      0.00000
   1200     160.3716      0.00000
   1201     160.3716      0.00000
   1202     160.3923      0.00000
   1203     160.3941      0.00000
   1204     160.4165      0.00000
   1205     160.4271      0.00000
   1206     160.4392      0.00000
   1207     160.4493      0.00000
   1208     160.4603      0.00000
   1209     160.4604      0.00000
   1210     160.4714      0.00000
   1211     160.4714      0.00000
   1212     160.4821      0.00000
   1213     160.4823      0.00000
   1214     162.4916      0.00000
   1215     163.5806      0.00000
   1216     163.6352      0.00000
   1217     163.6361      0.00000
   1218     163.9003      0.00000
   1219     163.9213      0.00000
   1220     164.0318      0.00000
   1221     164.0319      0.00000
   1222     164.0322      0.00000
   1223     164.0858      0.00000
   1224     164.0881      0.00000
   1225     164.0916      0.00000
   1226     164.1093      0.00000
   1227     164.1100      0.00000
   1228     164.1152      0.00000
   1229     164.1453      0.00000
   1230     164.1453      0.00000
   1231     164.1461      0.00000
   1232     164.1605      0.00000
   1233     164.1975      0.00000
   1234     164.1975      0.00000
   1235     164.1983      0.00000
   1236     164.2037      0.00000
   1237     164.2049      0.00000
   1238     165.4623      0.00000
   1239     166.6914      0.00000
   1240     166.6922      0.00000
   1241     166.7161      0.00000
   1242     166.9777      0.00000
   1243     167.1649      0.00000
   1244     167.1814      0.00000
   1245     167.1815      0.00000
   1246     167.3509      0.00000
   1247     167.3532      0.00000
   1248     167.3852      0.00000
   1249     167.3860      0.00000
   1250     167.4414      0.00000
   1251     167.4472      0.00000
   1252     167.4917      0.00000
   1253     167.4925      0.00000
   1254     167.5331      0.00000
   1255     167.5769      0.00000
   1256     167.5817      0.00000
   1257     167.5820      0.00000
   1258     167.6390      0.00000
   1259     167.6393      0.00000
   1260     167.6394      0.00000
   1261     167.6489      0.00000
   1262     167.6726      0.00000
   1263     167.6748      0.00000
   1264     167.6754      0.00000
   1265     167.6813      0.00000
   1266     167.6816      0.00000
   1267     167.7017      0.00000
   1268     167.7354      0.00000
   1269     167.7360      0.00000
   1270     167.7678      0.00000
   1271     167.7752      0.00000
   1272     167.7851      0.00000
   1273     167.7857      0.00000
   1274     167.8168      0.00000
   1275     167.8170      0.00000
   1276     167.8249      0.00000
   1277     167.8408      0.00000
   1278     167.8412      0.00000
   1279     167.8565      0.00000
   1280     167.8737      0.00000
   1281     167.8751      0.00000
   1282     167.8784      0.00000
   1283     167.8800      0.00000
   1284     167.9081      0.00000
   1285     167.9115      0.00000
   1286     168.1107      0.00000
   1287     168.1111      0.00000
   1288     168.1112      0.00000
   1289     168.1115      0.00000
   1290     168.1117      0.00000
   1291     168.1153      0.00000
   1292     168.1266      0.00000
   1293     168.1270      0.00000
   1294     168.1277      0.00000
   1295     168.1301      0.00000
   1296     168.1328      0.00000
   1297     168.1333      0.00000
   1298     168.1360      0.00000
   1299     168.1360      0.00000
   1300     168.1397      0.00000
   1301     168.1409      0.00000
   1302     168.2045      0.00000
   1303     168.2060      0.00000
   1304     168.2145      0.00000
   1305     168.2156      0.00000
   1306     168.2169      0.00000
   1307     168.2170      0.00000
   1308     168.2256      0.00000
   1309     168.2265      0.00000
   1310     170.5044      0.00000
   1311     170.8838      0.00000
   1312     171.1603      0.00000
   1313     171.1606      0.00000
   1314     171.1720      0.00000
   1315     171.3163      0.00000
   1316     171.3164      0.00000
   1317     171.3432      0.00000
   1318     171.4076      0.00000
   1319     171.4157      0.00000
   1320     171.4165      0.00000
   1321     171.4255      0.00000
   1322     171.4638      0.00000
   1323     171.4970      0.00000
   1324     171.4970      0.00000
   1325     171.5131      0.00000
   1326     171.5137      0.00000
   1327     171.5587      0.00000
   1328     171.5774      0.00000
   1329     171.5859      0.00000
   1330     171.5947      0.00000
   1331     171.5954      0.00000
   1332     171.6119      0.00000
   1333     171.6219      0.00000
   1334     171.6503      0.00000
   1335     171.7047      0.00000
   1336     171.7053      0.00000
   1337     171.7053      0.00000
   1338     171.7088      0.00000
   1339     171.7538      0.00000
   1340     171.7614      0.00000
   1341     171.7615      0.00000
   1342     171.7657      0.00000
   1343     171.7660      0.00000
   1344     171.7700      0.00000
   1345     171.7704      0.00000
   1346     171.7739      0.00000
   1347     171.7788      0.00000
   1348     171.7793      0.00000
   1349     171.7794      0.00000
   1350     171.7816      0.00000
   1351     171.7826      0.00000
   1352     171.8074      0.00000
   1353     171.8083      0.00000
   1354     171.8135      0.00000
   1355     171.8381      0.00000
   1356     171.8382      0.00000
   1357     171.8528      0.00000
   1358     176.7304      0.00000
   1359     178.7618      0.00000
   1360     178.7635      0.00000
   1361     178.7637      0.00000
   1362     178.9166      0.00000
   1363     178.9180      0.00000
   1364     178.9181      0.00000
   1365     178.9291      0.00000
   1366     179.4441      0.00000
   1367     181.0365      0.00000
   1368     181.2038      0.00000
   1369     181.2046      0.00000
   1370     181.8256      0.00000
   1371     181.8924      0.00000
   1372     182.1341      0.00000
   1373     182.1349      0.00000
   1374     182.1899      0.00000
   1375     182.2538      0.00000
   1376     182.2635      0.00000
   1377     182.2653      0.00000
   1378     182.3595      0.00000
   1379     182.3697      0.00000
   1380     182.4033      0.00000
   1381     182.4393      0.00000
   1382     182.4397      0.00000
   1383     182.4965      0.00000
   1384     182.4970      0.00000
   1385     182.5039      0.00000
   1386     182.5249      0.00000
   1387     182.5318      0.00000
   1388     182.5319      0.00000
   1389     182.5441      0.00000
   1390     182.5466      0.00000
[...]
   8162     578.2401      0.00000
   8163     578.2409      0.00000
   8164     578.2412      0.00000
   8165     578.2429      0.00000
   8166     578.2469      0.00000
   8167     578.2502      0.00000
   8168     578.2507      0.00000
   8169     578.2510      0.00000
   8170     578.2565      0.00000
   8171     578.2575      0.00000
   8172     578.2576      0.00000
   8173     578.2611      0.00000
   8174     578.2623      0.00000
   8175     578.2656      0.00000
   8176     578.2665      0.00000
   8177     578.2682      0.00000
   8178     578.2689      0.00000
   8179     578.2689      0.00000
   8180     578.2692      0.00000
   8181     578.2769      0.00000
   8182     578.2875      0.00000
   8183     578.2935      0.00000
   8184     578.2968      0.00000
   8185     578.2988      0.00000
   8186     578.3008      0.00000
   8187     578.3011      0.00000
   8188     578.3034      0.00000
   8189     578.3079      0.00000
   8190     578.3224      0.00000
   8191     578.3227      0.00000
   8192     578.3235      0.00000
   8193     578.3241      0.00000
   8194     578.3248      0.00000
   8195     578.3250      0.00000
   8196     578.3269      0.00000
   8197     578.3270      0.00000
   8198     578.3309      0.00000
   8199     578.3317      0.00000
   8200     578.3322      0.00000
   8201     578.3322      0.00000
   8202     578.3327      0.00000
   8203     578.3328      0.00000
   8204     578.3331      0.00000
   8205     578.3332      0.00000
   8206     578.4759      0.00000
   8207     578.4761      0.00000
   8208     578.4784      0.00000
   8209     578.4822      0.00000
   8210     578.5256      0.00000
   8211     578.5275      0.00000
   8212     578.7830      0.00000
   8213     582.0390      0.00000
   8214     582.1088      0.00000
   8215     583.6326      0.00000
   8216     583.6336      0.00000
   8217     583.9624      0.00000
   8218     585.0003      0.00000
   8219     585.1779      0.00000
   8220     585.2053      0.00000
   8221     585.3125      0.00000
   8222     585.3192      0.00000
   8223     585.3208      0.00000
   8224     585.3354      0.00000
   8225     585.3408      0.00000
   8226     585.3721      0.00000
   8227     585.4118      0.00000
   8228     585.4263      0.00000
   8229     585.4280      0.00000
   8230     585.4392      0.00000
   8231     585.4470      0.00000
   8232     585.4493      0.00000
   8233     585.4776      0.00000
   8234     585.4796      0.00000
   8235     585.4807      0.00000
   8236     585.4822      0.00000
   8237     585.4897      0.00000
   8238     585.4913      0.00000
   8239     585.5003      0.00000
   8240     585.5005      0.00000
   8241     585.5315      0.00000
   8242     585.5430      0.00000
   8243     585.5455      0.00000
   8244     585.5520      0.00000
   8245     585.5584      0.00000
   8246     585.5607      0.00000
   8247     585.6007      0.00000
   8248     585.6158      0.00000
   8249     585.6164      0.00000
   8250     585.6192      0.00000
   8251     585.6219      0.00000
   8252     585.6261      0.00000
   8253     585.6289      0.00000
   8254     585.6292      0.00000
   8255     585.7110      0.00000
   8256     585.7491      0.00000
   8257     585.7512      0.00000
   8258     585.7738      0.00000
   8259     585.7956      0.00000
   8260     585.8035      0.00000
   8261     585.8054      0.00000
   8262     585.8246      0.00000
   8263     585.8428      0.00000
   8264     585.8885      0.00000
   8265     585.8922      0.00000
   8266     585.8933      0.00000
   8267     585.9003      0.00000
   8268     585.9009      0.00000
   8269     585.9012      0.00000
   8270     585.9093      0.00000
   8271     585.9105      0.00000
   8272     585.9106      0.00000
   8273     585.9109      0.00000
   8274     585.9517      0.00000
   8275     585.9528      0.00000
   8276     585.9742      0.00000
   8277     585.9775      0.00000
   8278     585.9792      0.00000
   8279     585.9809      0.00000
   8280     585.9813      0.00000
   8281     586.0122      0.00000
   8282     586.0143      0.00000
   8283     586.0193      0.00000
   8284     586.0194      0.00000
   8285     587.2073      0.00000
   8286     587.4354      0.00000
   8287     587.4374      0.00000
   8288     587.9950      0.00000
   8289     588.1994      0.00000
   8290     588.8678      0.00000
   8291     589.0378      0.00000
   8292     589.0385      0.00000
   8293     589.1045      0.00000
   8294     589.1264      0.00000
   8295     589.1274      0.00000
   8296     589.1501      0.00000
   8297     589.2366      0.00000
   8298     589.2373      0.00000
   8299     589.2551      0.00000
   8300     589.2654      0.00000
   8301     589.2782      0.00000
   8302     589.2794      0.00000
   8303     589.2832      0.00000
   8304     589.3080      0.00000
   8305     589.3084      0.00000
   8306     589.3281      0.00000
   8307     589.3373      0.00000
   8308     589.3462      0.00000
   8309     589.3466      0.00000
   8310     589.3528      0.00000
   8311     589.3547      0.00000
   8312     589.3567      0.00000
   8313     589.3608      0.00000
   8314     589.3753      0.00000
   8315     589.3807      0.00000
   8316     589.3866      0.00000
   8317     589.3875      0.00000
   8318     589.3925      0.00000
   8319     589.4079      0.00000
   8320     589.4145      0.00000
   8321     589.4172      0.00000
   8322     589.4173      0.00000
   8323     589.4187      0.00000
   8324     589.4209      0.00000
   8325     589.4229      0.00000
   8326     589.4245      0.00000
   8327     589.4262      0.00000
   8328     589.4282      0.00000
   8329     589.4292      0.00000
   8330     589.4373      0.00000
   8331     589.4380      0.00000
   8332     589.4428      0.00000
   8333     589.4445      0.00000
   8334     589.4482      0.00000
   8335     589.4538      0.00000
   8336     589.4540      0.00000
   8337     589.4542      0.00000
   8338     589.4544      0.00000
   8339     589.4581      0.00000
   8340     589.4585      0.00000
   8341     589.4590      0.00000
   8342     589.4647      0.00000
   8343     589.4694      0.00000
   8344     589.4728      0.00000
   8345     589.4751      0.00000
   8346     589.4769      0.00000
   8347     589.4900      0.00000
   8348     589.5110      0.00000
   8349     589.5138      0.00000
   8350     589.5142      0.00000
   8351     589.5144      0.00000
   8352     589.5522      0.00000
   8353     589.5600      0.00000
   8354     589.5615      0.00000
   8355     589.5694      0.00000
   8356     589.5789      0.00000
   8357     589.5797      0.00000
   8358     589.5799      0.00000
   8359     589.5815      0.00000
   8360     589.5838      0.00000
   8361     589.5839      0.00000
   8362     589.5841      0.00000
   8363     589.5847      0.00000
   8364     589.5850      0.00000
   8365     589.5853      0.00000
   8366     589.5868      0.00000
   8367     589.5872      0.00000
   8368     589.5888      0.00000
   8369     589.5893      0.00000
   8370     589.5906      0.00000
   8371     589.5958      0.00000
   8372     589.5961      0.00000
   8373     589.6287      0.00000
   8374     589.6311      0.00000
   8375     589.6375      0.00000
   8376     589.6375      0.00000
   8377     589.6538      0.00000
   8378     589.7548      0.00000
   8379     589.7719      0.00000
   8380     589.7720      0.00000
   8381     595.3702      0.00000
   8382     595.5333      0.00000
   8383     596.3969      0.00000
   8384     596.3969      0.00000
   8385     596.4468      0.00000
   8386     596.6995      0.00000
   8387     596.8244      0.00000
   8388     596.8284      0.00000
   8389     596.8285      0.00000
   8390     596.8624      0.00000
   8391     596.8690      0.00000
   8392     596.8690      0.00000
   8393     596.8848      0.00000
   8394     596.8873      0.00000
   8395     596.8882      0.00000
   8396     596.8888      0.00000
   8397     596.8929      0.00000
   8398     596.8931      0.00000
   8399     596.9351      0.00000
   8400     596.9412      0.00000
   8401     596.9498      0.00000
   8402     596.9631      0.00000
   8403     596.9753      0.00000
   8404     596.9762      0.00000
   8405     612.7538      0.00000
   8406     612.7545      0.00000
   8407     613.3278      0.00000
   8408     616.6403      0.00000
   8409     618.0096      0.00000
   8410   10000.0000      0.00000
   8411   10000.0000      0.00000
   8412   10000.0000      0.00000
   8413   10000.0000      0.00000
   8414   10000.0000      0.00000
   8415   10000.0000      0.00000
   8416   10000.0000      0.00000
   8417   10000.0000      0.00000
   8418   10000.0000      0.00000
   8419   10000.0000      0.00000
   8420   10000.0000      0.00000
   8421   10000.0000      0.00000
   8422   10000.0000      0.00000
   8423   10000.0000      0.00000
   8424   10000.0000      0.00000
   8425   10000.0000      0.00000
   8426   10000.0000      0.00000
   8427   10000.0000      0.00000
   8428   10000.0000      0.00000
   8429   10000.0000      0.00000
   8430   10000.0000      0.00000
   8431   10000.0000      0.00000
   8432   10000.0000      0.00000
   8433   10000.0000      0.00000
   8434   10000.0000      0.00000
   8435   10000.0000      0.00000
   8436   10000.0000      0.00000
   8437   10000.0000      0.00000
   8438   10000.0000      0.00000
   8439   10000.0000      0.00000
   8440   10000.0000      0.00000
   8441   10000.0000      0.00000
   8442   10000.0000      0.00000
   8443   10000.0000      0.00000
   8444   10000.0000      0.00000
   8445   10000.0000      0.00000
   8446   10000.0000      0.00000
   8447   10000.0000      0.00000
   8448   10000.0000      0.00000


--------------------------------------------------------------------------------------------------------


 soft charge-density along one line, spin component           1
         0         1         2         3         4         5         6         7         8         9
 total charge-density along one line
 
 pseudopotential strength for first ion, spin component:           1
-45.663 -46.637  16.300   0.000   0.004   0.000  -0.000  -0.001
-46.637 -47.634  17.444   0.000   0.004   0.000  -0.000  -0.003
 16.300  17.444  71.221   0.000   0.007   0.000  -0.000  -0.154
  0.000   0.000   0.000  -0.107   0.000  -0.000   1.216   0.000
  0.004   0.004   0.007   0.000  -0.107   0.000   0.000   1.218
  0.000   0.000   0.000  -0.000   0.000  -0.107  -0.000   0.000
 -0.000  -0.000  -0.000   1.216   0.000  -0.000 -57.632  -0.000
 -0.001  -0.003  -0.154   0.000   1.218   0.000  -0.000 -57.662
 -0.000  -0.000  -0.000  -0.000   0.000   1.216   0.000  -0.000
  0.000   0.000   0.000   0.648   0.000  -0.000 -18.124  -0.000
  0.122   0.124  -0.004   0.000   0.651   0.000  -0.000 -18.152
  0.000   0.000   0.000  -0.000   0.000   0.648   0.000  -0.000
  0.000   0.000  -0.000  -0.000  -0.000   0.000   0.000   0.000
  0.000   0.000   0.000  -0.000   0.000  -0.000   0.025   0.000
  0.001   0.001   0.003  -0.000  -0.000   0.000  -0.000   0.029
  0.000   0.000   0.000  -0.000  -0.000  -0.000   0.000   0.000
 -0.000  -0.000  -0.000  -0.000  -0.000  -0.000  -0.000  -0.000
 -0.000  -0.000   0.000   0.000   0.000  -0.000  -0.000  -0.000
 -0.000  -0.000  -0.000   0.002  -0.000   0.000  -0.063  -0.000
 -0.002  -0.002  -0.013   0.000   0.002  -0.000   0.000  -0.073
 -0.000  -0.000  -0.000   0.000   0.000   0.002  -0.000  -0.000
  0.000   0.000   0.000   0.000   0.000   0.000   0.000   0.000
 -0.000  -0.000   0.000  -0.000   0.000   0.000   0.000  -0.000
 -0.000  -0.000   0.000  -0.000  -0.000  -0.000   0.000  -0.000
 -0.000  -0.000   0.000  -0.000  -0.000  -0.000   0.004   0.000
 -0.000  -0.000   0.000   0.000  -0.000   0.000  -0.000   0.004
 -0.000  -0.000  -0.000  -0.000  -0.000  -0.000   0.000   0.000
 -0.000  -0.000  -0.000   0.000   0.000  -0.000  -0.000  -0.000
 -0.000  -0.000  -0.000  -0.000  -0.000   0.000   0.000   0.000
 total augmentation occupancy for first ion, spin component:           1
 14.874 -13.112  -0.031   0.000   3.214   0.000  -0.000   0.047  -0.000  -0.000   0.010  -0.000  -0.000   0.000   0.149  -0.000
-13.112  13.358   0.029  -0.000  -3.296  -0.000   0.000  -0.042   0.000   0.000  -0.009   0.000   0.000  -0.000  -0.150   0.000
 -0.031   0.029   0.000  -0.000  -0.007  -0.000   0.000  -0.000   0.000   0.000  -0.000   0.000   0.000  -0.000  -0.000   0.000
  0.000  -0.000  -0.000   0.000   0.000   0.000  -0.000   0.000  -0.000  -0.000   0.000  -0.000  -0.000   0.000   0.000   0.000
  3.214  -3.296  -0.007   0.000   0.813   0.000  -0.000   0.010  -0.000  -0.000   0.002  -0.000  -0.000   0.000   0.037  -0.000
  0.000  -0.000  -0.000   0.000   0.000   0.000  -0.000   0.000  -0.000  -0.000   0.000  -0.000  -0.000   0.000   0.000  -0.000
 -0.000   0.000   0.000  -0.000  -0.000  -0.000   0.000  -0.000   0.000   0.000  -0.000   0.000  -0.000  -0.000  -0.000   0.000
  0.047  -0.042  -0.000   0.000   0.010   0.000  -0.000   0.000  -0.000  -0.000   0.000  -0.000  -0.000   0.000   0.000  -0.000
 -0.000   0.000   0.000  -0.000  -0.000  -0.000   0.000  -0.000   0.000   0.000  -0.000   0.000   0.000  -0.000  -0.000   0.000
 -0.000   0.000   0.000  -0.000  -0.000  -0.000   0.000  -0.000   0.000   0.000  -0.000   0.000   0.000  -0.000  -0.000   0.000
  0.010  -0.009  -0.000   0.000   0.002   0.000  -0.000   0.000  -0.000  -0.000   0.000  -0.000  -0.000   0.000   0.000  -0.000
 -0.000   0.000   0.000  -0.000  -0.000  -0.000   0.000  -0.000   0.000   0.000  -0.000   0.000   0.000  -0.000  -0.000   0.000
 -0.000   0.000   0.000  -0.000  -0.000  -0.000  -0.000  -0.000   0.000   0.000  -0.000   0.000   0.000  -0.000  -0.000  -0.000
  0.000  -0.000  -0.000   0.000   0.000   0.000  -0.000   0.000  -0.000  -0.000   0.000  -0.000  -0.000   0.000   0.000   0.000
  0.149  -0.150  -0.000   0.000   0.037   0.000  -0.000   0.000  -0.000  -0.000   0.000  -0.000  -0.000   0.000   0.002  -0.000
 -0.000   0.000   0.000   0.000  -0.000  -0.000   0.000  -0.000   0.000   0.000  -0.000   0.000  -0.000   0.000  -0.000   0.000
 -0.000   0.000   0.000  -0.000  -0.000  -0.000   0.000  -0.000   0.000   0.000  -0.000   0.000   0.000  -0.000  -0.000   0.000
 -0.000   0.000   0.000  -0.000  -0.000  -0.000  -0.000  -0.000   0.000   0.000  -0.000   0.000   0.000  -0.000  -0.000  -0.000
 -0.000  -0.000  -0.000   0.000   0.000   0.000   0.000  -0.000   0.000  -0.000   0.000   0.000  -0.000   0.000   0.000   0.000
  0.022  -0.022  -0.000   0.000   0.005   0.000  -0.000   0.000  -0.000  -0.000   0.000  -0.000  -0.000   0.000   0.000  -0.000
 -0.000   0.000   0.000  -0.000  -0.000  -0.000   0.000  -0.000   0.000   0.000  -0.000   0.000  -0.000   0.000  -0.000   0.000
 -0.000   0.000   0.000  -0.000  -0.000  -0.000   0.000  -0.000   0.000   0.000  -0.000   0.000  -0.000  -0.000  -0.000   0.000
  0.000  -0.000  -0.000   0.000   0.000   0.000  -0.000   0.000  -0.000  -0.000   0.000  -0.000  -0.000   0.000   0.000  -0.000
  0.000  -0.000  -0.000   0.000   0.000   0.000  -0.000   0.000  -0.000  -0.000   0.000  -0.000  -0.000   0.000   0.000  -0.000
  0.000  -0.000  -0.000   0.000   0.000   0.000  -0.000   0.000  -0.000  -0.000   0.000  -0.000   0.000   0.000   0.000  -0.000
 -0.012   0.012   0.000  -0.000  -0.003  -0.000   0.000  -0.000   0.000   0.000  -0.000   0.000   0.000  -0.000  -0.000   0.000
 -0.000   0.000   0.000  -0.000  -0.000  -0.000  -0.000  -0.000   0.000   0.000  -0.000   0.000   0.000  -0.000  -0.000  -0.000
  0.000  -0.000  -0.000   0.000   0.000   0.000  -0.000   0.000  -0.000  -0.000   0.000  -0.000   0.000   0.000   0.000  -0.000
 -0.000   0.000   0.000  -0.000  -0.000  -0.000   0.000  -0.000   0.000   0.000  -0.000   0.000   0.000  -0.000  -0.000   0.000


------------------------ aborting loop because EDIFF is reached ----------------------------------------


    CHARGE:  cpu time      0.0088: real time      0.0089
    FORLOC:  cpu time      0.0008: real time      0.0008
    FORHF :  cpu time      0.0831: real time      0.0839
    FORNL :  cpu time      0.1289: real time      0.1299
    FORHAR:  cpu time      0.0292: real time      0.0293
    MIXING:  cpu time      0.0002: real time      0.0002
    OFIELD:  cpu time      0.0001: real time      0.0001

 VOLUME and BASIS-vectors are now :
 -----------------------------------------------------------------------------
  energy-cutoff  :      600.00
  volume of cell :      256.05
      direct lattice vectors                 reciprocal lattice vectors
     6.350017565  0.000000000  0.000000000     0.157479879  0.000000000  0.000000000
     0.000000000  6.350017565  0.000000000     0.000000000  0.157479879  0.000000000
     0.000000000  0.000000000  6.350017565     0.000000000  0.000000000  0.157479879

  length of vectors
     6.350017565  6.350017565  6.350017565     0.157479879  0.157479879  0.157479879


 FORCES acting on ions
    electron-ion (+dipol)            ewald-force                    non-local-force                 convergence-correction
 -----------------------------------------------------------------------------------------------
   0.601E-07 -.472E-08 0.232E+02   0.878E-17 0.826E-17 -.151E+02   0.781E-07 -.539E-07 -.410E+01   -.448E-07 0.552E-08 0.892E-03
   0.182E-08 0.123E-08 -.138E+02   -.315E-17 -.520E-17 0.151E+02   0.224E-10 -.160E-09 -.817E+00   -.126E-08 -.610E-09 0.615E-04
 -----------------------------------------------------------------------------------------------
   0.619E-07 -.349E-08 0.943E+01   0.563E-17 0.306E-17 0.000E+00   0.782E-07 -.540E-07 -.491E+01   -.461E-07 0.491E-08 0.954E-03
 
 
 POSITION                                       TOTAL-FORCE (eV/Angst)
 -----------------------------------------------------------------------------------
      0.00000      0.00000      0.00000         0.000000     -0.000000     -0.392154
      0.00000      0.00000      1.62106        -0.000000      0.000000      0.392154
 -----------------------------------------------------------------------------------
    total drift:                                0.000000     -0.000000      0.001712


--------------------------------------------------------------------------------------------------------



  FREE ENERGIE OF THE ION-ELECTRON SYSTEM (eV)
  ---------------------------------------------------
  free  energy   TOTEN  =       -10.04677663 eV

  energy  without entropy=      -10.04677663  energy(sigma->0) =      -10.04677663
 


--------------------------------------------------------------------------------------------------------


    POTLOK:  cpu time      0.0407: real time      0.0409


--------------------------------------------------------------------------------------------------------


 writing wavefunctions
     LOOP+:  cpu time     76.8697: real time     77.5103
    4ORBIT:  cpu time      0.0000: real time      0.0000

 total amount of memory used by VASP MPI-rank0   194584. kBytes
=======================================================================

   base      :      30000. kBytes
   nonl-proj :       2095. kBytes
   fftplans  :       1794. kBytes
   grid      :       8330. kBytes
   one-center:         40. kBytes
   HF        :        336. kBytes
   nonlr-proj:        255. kBytes
   wavefun   :      11962. kBytes
   fock_wrk  :     139772. kBytes
 
  
  
 General timing and accounting informations for this job:
 ========================================================
  
                  Total CPU time used (sec):       84.479
                            User time (sec):       82.207
                          System time (sec):        2.272
                         Elapsed time (sec):       85.351
  
                   Maximum memory used (kb):     1137644.
                   Average memory used (kb):          N/A
  
                          Minor page faults:       450798
                          Major page faults:         6479
                 Voluntary context switches:         2876
