 vasp.6.3.0 20Jan22 (build Dec  8 2022 17:40:58) gamma-only                      
 executed on             LinuxGNU date 2025.05.20  10:31:25
 running on    1 total cores
 distrk:  each k-point on    1 cores,    1 groups
 distr:  one band on NCORE=   1 cores,    1 groups


--------------------------------------------------------------------------------------------------------


 INCAR:
   ENCUT = 700
   SIGMA = 0.001
   EDIFF = 1E-6
   ISYM = -1
   ALGO = sub
   NELM = 1
   NBANDS = 6235
   ISYM = -1
   PREC = Accurate

 POTCAR:    PAW_PBE He_GW 23Feb2015               
 POTCAR:    PAW_PBE He_GW 23Feb2015               
   SHA256 =  3abac926d96e91498f3915cb010d0fbb15fe9ea31a649aacf98be39d0884cf70 He_GW/POTCAR          
   COPYR  = (c) Copyright 23Feb2015 Georg Kresse                                                    
   COPYR  = This file is part of the software VASP. Any use, copying, and all other rights are regul
   COPYR  = If you do not have a valid VASP license, you may not use, copy or distribute this file. 
   VRHFIN =He: 1s                                                                                   
   LEXCH  = PE                                                                                      
   EATOM  =    78.7251 eV,    5.7861 Ry                                                             
                                                                                                    
   TITEL  = PAW_PBE He_GW 23Feb2015                                                                 
   LULTRA =        F    use ultrasoft PP ?                                                          
   IUNSCR =        0    unscreen: 0-lin 1-nonlin 2-no                                               
   RPACOR =    0.000    partial core radius                                                         
   POMASS =    4.000; ZVAL   =    2.000    mass and valenz                                          
   RCORE  =    1.200    outmost cutoff radius                                                       
   RWIGS  =    1.200; RWIGS  =    0.635    wigner-seitz radius (au A)                               
   ENMAX  =  405.780; ENMIN  =  304.335 eV                                                          
   RCLOC  =    0.703    cutoff for local pot                                                        
   LCOR   =        T    correct aug charges                                                         
   LPAW   =        T    paw PP                                                                      
   EAUG   = 1514.192                                                                                
   RMAX   =    1.224    core radius for proj-oper                                                   
   RAUG   =    1.200    factor for augmentation sphere                                              
   RDEP   =    1.261    radius for radial grids                                                     
   RDEPT  =    1.051    core radius for aug-charge                                                  
                                                                                                    
   Atomic configuration                                                                             
    3 entries                                                                                       
     n  l   j            E        occ.                                                              
     1  0  0.50       -15.7639   2.0000                                                             
     2  1  0.50        -2.8912   0.0000                                                             
     3  2  1.50        -2.8912   0.0000                                                             
   Description                                                                                      
     l       E           TYP  RCUT    TYP  RCUT                                                     
     0    -15.7638891     23  1.200                                                                 
     0     27.2116520     23  1.200                                                                 
     1     -6.8029130     23  1.200                                                                 
     1     81.6349560     23  1.200                                                                 
     1    476.2039100     23  1.200                                                                 
     2     81.6349560     23  1.200                                                                 
     2    142.8611730     23  1.200                                                                 
  local pseudopotential read in
  kinetic energy density of atom read in
  atomic valenz-charges read in
  non local Contribution for L=           0  read in
    real space projection operators read in
  non local Contribution for L=           0  read in
    real space projection operators read in
  non local Contribution for L=           1  read in
    real space projection operators read in
  non local Contribution for L=           1  read in
    real space projection operators read in
  non local Contribution for L=           1  read in
    real space projection operators read in
  non local Contribution for L=           2  read in
    real space projection operators read in
  non local Contribution for L=           2  read in
    real space projection operators read in
    PAW grid and wavefunctions read in

   number of l-projection  operators is LMAX  =           7
   number of lm-projection operators is LMMAX =          21

  PAW_PBE He_GW 23Feb2015               :
 energy of atom  1       EATOM=  -78.7251
 kinetic energy error for atom=    0.0029 (will be added to EATOM!!)


 POSCAR: He
  positions in cartesian coordinates
  No initial velocities read in
 exchange correlation table for  LEXCH =        8
   RHO(1)=    0.500       N(1)  =     2000
   RHO(2)=  100.500       N(2)  =     4000



--------------------------------------------------------------------------------------------------------


 ion  position               nearest neighbor table
   1  0.000  0.000  0.000-


IMPORTANT INFORMATION: All symmetrisations will be switched off!
NOSYMM: (Re-)initialisation of all symmetry stuff for point group C_1.


----------------------------------------------------------------------------------------

                                     Primitive cell                                     

  volume of cell :     148.1845

  direct lattice vectors                    reciprocal lattice vectors
     5.291770000  0.000000000  0.000000000     0.188972688  0.000000000  0.000000000
     0.000000000  5.291770000  0.000000000     0.000000000  0.188972688  0.000000000
     0.000000000  0.000000000  5.291770000     0.000000000  0.000000000  0.188972688

  length of vectors
     5.291770000  5.291770000  5.291770000     0.188972688  0.188972688  0.188972688

  position of ions in fractional coordinates (direct lattice)
     0.000000000  0.000000000  0.000000000

  ion indices of the primitive-cell ions
   primitive index   ion index
                 1           1

----------------------------------------------------------------------------------------



 KPOINTS: Automatically generated mesh            

Automatic generation of k-mesh.
 Grid dimensions read from file:
 generate k-points for:    1    1    1

 Generating k-lattice:

  Cartesian coordinates                     Fractional coordinates (reciprocal lattice)
     0.188972688  0.000000000  0.000000000     1.000000000  0.000000000  0.000000000
     0.000000000  0.188972688  0.000000000     0.000000000  1.000000000  0.000000000
     0.000000000  0.000000000  0.188972688     0.000000000  0.000000000  1.000000000

  Length of vectors
     0.188972688  0.188972688  0.188972688

  Shift w.r.t. Gamma in fractional coordinates (k-lattice)
     0.000000000  0.000000000  0.000000000

 
 Subroutine IBZKPT returns following result:
 ===========================================
 
 Found      1 irreducible k-points:
 
 Following reciprocal coordinates:
            Coordinates               Weight
  0.000000  0.000000  0.000000      1.000000
 
 Following cartesian coordinates:
            Coordinates               Weight
  0.000000  0.000000  0.000000      1.000000
 


--------------------------------------------------------------------------------------------------------




 Dimension of arrays:
   k-points           NKPTS =      1   k-points in BZ     NKDIM =      1   number of bands    NBANDS=   6235
   number of dos      NEDOS =    301   number of ions     NIONS =      1
   non local maximal  LDIM  =      7   non local SUM 2l+1 LMDIM =     21
   total plane-waves  NPLWV = 110592
   max r-space proj   IRMAX =      1   max aug-charges    IRDMAX=   5416
   dimension x,y,z NGX =    48 NGY =   48 NGZ =   48
   dimension x,y,z NGXF=    96 NGYF=   96 NGZF=   96
   support grid    NGXF=    96 NGYF=   96 NGZF=   96
   ions per type =               1
   NGX,Y,Z   is equivalent  to a cutoff of  15.08, 15.08, 15.08 a.u.
   NGXF,Y,Z  is equivalent  to a cutoff of  30.16, 30.16, 30.16 a.u.

 SYSTEM =  unknown system                          
 POSCAR =  He                                      

 Startparameter for this run:
   NWRITE =      2    write-flag & timer
   PREC   = accura    normal or accurate (medium, high low for compatibility)
   ISTART =      1    job   : 0-new  1-cont  2-samecut
   ICHARG =      0    charge: 1-file 2-atom 10-const
   ISPIN  =      1    spin polarized calculation?
   LNONCOLLINEAR =      F non collinear calculations
   LSORBIT =      F    spin-orbit coupling
   INIWAV =      1    electr: 0-lowe 1-rand  2-diag
   LASPH  =      F    aspherical Exc in radial PAW
 Electronic Relaxation 1
   ENCUT  =  700.0 eV  51.45 Ry    7.17 a.u.  11.42 11.42 11.42*2*pi/ulx,y,z
   ENINI  =  700.0     initial cutoff
   ENAUG  = 1514.2 eV  augmentation charge cutoff
   NELM   =      1;   NELMIN=  2; NELMDL=  0     # of ELM steps 
   EDIFF  = 0.1E-05   stopping-criterion for ELM
   LREAL  =      F    real-space projection
   NLSPLINE    = F    spline interpolate recip. space projectors
   LCOMPAT=      F    compatible to vasp.4.4
   GGA_COMPAT  = T    GGA compatible to vasp.4.4-vasp.4.6
   LMAXPAW     = -100 max onsite density
   LMAXMIX     =    2 max onsite mixed and CHGCAR
   VOSKOWN=      0    Vosko Wilk Nusair interpolation
   ROPT   =    0.00000
 Ionic relaxation
   EDIFFG = 0.1E-04   stopping-criterion for IOM
   NSW    =      0    number of steps for IOM
   NBLOCK =      1;   KBLOCK =      1    inner block; outer block 
   IBRION =     -1    ionic relax: 0-MD 1-quasi-New 2-CG
   NFREE  =      0    steps in history (QN), initial steepest desc. (CG)
   ISIF   =      2    stress and relaxation
   IWAVPR =     10    prediction:  0-non 1-charg 2-wave 3-comb
   ISYM   =     -1    0-nonsym 1-usesym 2-fastsym
   LCORR  =      T    Harris-Foulkes like correction to forces

   POTIM  = 0.5000    time-step for ionic-motion
   TEIN   =    0.0    initial temperature
   TEBEG  =    0.0;   TEEND  =   0.0 temperature during run
   SMASS  =  -3.00    Nose mass-parameter (am)
   estimated Nose-frequenzy (Omega)   =  0.10E-29 period in steps = 0.13E+47 mass=  -0.640E-27a.u.
   SCALEE = 1.0000    scale energy and forces
   NPACO  =    256;   APACO  = 10.0  distance and # of slots for P.C.
   PSTRESS=    0.0 pullay stress

  Mass of Ions in am
   POMASS =   4.00
  Ionic Valenz
   ZVAL   =   2.00
  Atomic Wigner-Seitz radii
   RWIGS  =  -1.00
  virtual crystal weights 
   VCA    =   1.00
   NELECT =       2.0000    total number of electrons
   NUPDOWN=      -1.0000    fix difference up-down

 DOS related values:
   EMIN   =  10.00;   EMAX   =-10.00  energy-range for DOS
   EFERMI =   0.00
   ISMEAR =     1;   SIGMA  =   0.00  broadening in eV -4-tet -1-fermi 0-gaus

 Electronic relaxation 2 (details)
   IALGO  =      4    algorithm
   LDIAG  =      T    sub-space diagonalisation (order eigenvalues)
   LSUBROT=      F    optimize rotation matrix (better conditioning)
   TURBO    =      0    0=normal 1=particle mesh
   IRESTART =      0    0=no restart 2=restart with 2 vectors
   NREBOOT  =      0    no. of reboots
   NMIN     =      0    reboot dimension
   EREF     =   0.00    reference energy to select bands
   IMIX   =      4    mixing-type and parameters
     AMIX     =   0.40;   BMIX     =  1.00
     AMIX_MAG =   1.60;   BMIX_MAG =  1.00
     AMIN     =   0.10
     WC   =   100.;   INIMIX=   1;  MIXPRE=   1;  MAXMIX= -45

 Intra band minimization:
   WEIMIN = 0.0000     energy-eigenvalue tresh-hold
   EBREAK =  0.40E-10  absolut break condition
   DEPER  =   0.30     relativ break condition  

   TIME   =   0.40     timestep for ELM

  volume/ion in A,a.u.               =     148.18      1000.00
  Fermi-wavevector in a.u.,A,eV,Ry     =   0.389778  0.736573  2.067090  0.151927
  Thomas-Fermi vector in A             =   1.331259

 Write flags
   LWAVE        =      T    write WAVECAR
   LDOWNSAMPLE  =      F    k-point downsampling of WAVECAR
   LCHARG       =      T    write CHGCAR
   LVTOT        =      F    write LOCPOT, total local potential
   LVHAR        =      F    write LOCPOT, Hartree potential only
   LELF         =      F    write electronic localiz. function (ELF)
   LORBIT       =      0    0 simple, 1 ext, 2 COOP (PROOUT), +10 PAW based schemes


 Dipole corrections
   LMONO  =      F    monopole corrections only (constant potential shift)
   LDIPOL =      F    correct potential (dipole corrections)
   IDIPOL =      0    1-x, 2-y, 3-z, 4-all directions 
   EPSILON=  1.0000000 bulk dielectric constant

 Exchange correlation treatment:
   GGA     =    --    GGA type
   LEXCH   =     8    internal setting for exchange type
   LIBXC   =     F    Libxc                    
   VOSKOWN =     0    Vosko Wilk Nusair interpolation
   LHFCALC =     F    Hartree Fock is set to
   LHFONE  =     F    Hartree Fock one center treatment
   AEXX    =    0.0000 exact exchange contribution

 Linear response parameters
   LEPSILON=     F    determine dielectric tensor
   LRPA    =     F    only Hartree local field effects (RPA)
   LNABLA  =     F    use nabla operator in PAW spheres
   LVEL    =     F    velocity operator in full k-point grid
   CSHIFT  =0.1000    complex shift for real part using Kramers Kronig
   OMEGAMAX=  -1.0    maximum frequency
   DEG_THRESHOLD= 0.2000000E-02 threshold for treating states as degnerate
   RTIME   =   -0.100 relaxation time in fs
  (WPLASMAI=    0.000 imaginary part of plasma frequency in eV, 0.658/RTIME)
   DFIELD  = 0.0000000 0.0000000 0.0000000 field for delta impulse in time

  Optional k-point grid parameters
   LKPOINTS_OPT  =     F    use optional k-point grid
   KPOINTS_OPT_MODE=     1    mode for optional k-point grid

 Orbital magnetization related:
   ORBITALMAG=     F  switch on orbital magnetization
   LCHIMAG   =     F  perturbation theory with respect to B field
   DQ        =  0.001000  dq finite difference perturbation B field
   LLRAUG    =     F  two centre corrections for induced B field



--------------------------------------------------------------------------------------------------------


 Static calculation
 charge density and potential will be updated during run
 non-spin polarized calculation
 Subrot: only subspace diagonalization (rotation)
    band-by band algorithm
 perform sub-space diagonalisation
    before iterative eigenvector-optimisation
 modified Broyden-mixing scheme, WC =      100.0
 initial mixing is a Kerker type mixing with AMIX =  0.4000 and BMIX =      1.0000
 Hartree-type preconditioning will be used
 using additional bands         6234
 reciprocal scheme for non local part
 calculate Harris-corrections to forces   (improved forces if not selfconsistent)
 use gradient corrections 
 use of overlap-Matrix (Vanderbilt PP)
 Methfessel and Paxton  Order N= 1 SIGMA  =   0.00


--------------------------------------------------------------------------------------------------------


  energy-cutoff  :      700.00
  volume of cell :      148.18
      direct lattice vectors                 reciprocal lattice vectors
     5.291770000  0.000000000  0.000000000     0.188972688  0.000000000  0.000000000
     0.000000000  5.291770000  0.000000000     0.000000000  0.188972688  0.000000000
     0.000000000  0.000000000  5.291770000     0.000000000  0.000000000  0.188972688

  length of vectors
     5.291770000  5.291770000  5.291770000     0.188972688  0.188972688  0.188972688



 old parameters found on file WAVECAR:
  energy-cutoff  :      700.00
  volume of cell :      148.18
      direct lattice vectors                 reciprocal lattice vectors
     5.291770000  0.000000000  0.000000000     0.188972688  0.000000000  0.000000000
     0.000000000  5.291770000  0.000000000     0.000000000  0.188972688  0.000000000
     0.000000000  0.000000000  5.291770000     0.000000000  0.000000000  0.188972688

  length of vectors


 k-points in units of 2pi/SCALE and weight: Automatically generated mesh            
   0.00000000  0.00000000  0.00000000       1.000

 k-points in reciprocal lattice and weights: Automatically generated mesh            
   0.00000000  0.00000000  0.00000000       1.000

 position of ions in fractional coordinates (direct lattice) 
   0.00000000  0.00000000  0.00000000

 position of ions in cartesian coordinates  (Angst):
   0.00000000  0.00000000  0.00000000



--------------------------------------------------------------------------------------------------------


 use serial FFT for orbitals x direction half grid
 k-point   1 :   0.0000 0.0000 0.0000  plane waves:    3118

 maximum and minimum number of plane-waves per node :      3118     3118

 maximum number of plane-waves:      3118
 maximum index in each direction: 
   IXMAX=   11   IYMAX=   11   IZMAX=   11
   IXMIN=    0   IYMIN=  -11   IZMIN=  -11


 serial   3D FFT for wavefunctions
 parallel 3D FFT for charge:
    minimum data exchange during FFTs selected (reduces bandwidth)


 total amount of memory used by VASP MPI-rank0   420935. kBytes
=======================================================================

   base      :      30000. kBytes
   nonl-proj :        573. kBytes
   fftplans  :      30736. kBytes
   grid      :      47517. kBytes
   one-center:         10. kBytes
   wavefun   :     312099. kBytes

     INWAV:  cpu time      0.6363: real time      0.6363
 Broyden mixing: mesh for mixing (old mesh)
   NGX = 23   NGY = 23   NGZ = 23
  (NGX  = 96   NGY  = 96   NGZ  = 96)
  gives a total of  12167 points

 charge density for first step will be calculated from the start-wavefunctions


--------------------------------------------------------------------------------------------------------


 Maximum index for augmentation-charges         5041 (set IRDMAX)


--------------------------------------------------------------------------------------------------------


 initial charge from wavefunction
 First call to EWALD:  gamma=   0.335
 Maximum number of real-space cells 3x 3x 3
 Maximum number of reciprocal cells 3x 3x 3

    FEWALD:  cpu time      0.0003: real time      0.0003


--------------------------------------- Iteration      1(   1)  ---------------------------------------


    POTLOK:  cpu time      0.2766: real time      0.2774
    SETDIJ:  cpu time      0.0015: real time      0.0015
    EDDIAG:  cpu time     84.1401: real time     84.1443
       DOS:  cpu time      0.0008: real time      0.0008
    --------------------------------------------
      LOOP:  cpu time     84.4190: real time     84.4240

 eigenvalue-minimisations  :     0
 total energy-change (2. order) :-0.6115037E-02  ( 0.0000000E+00)
 number of electron       1.9999997 magnetization 
 augmentation part        0.2965630 magnetization 

 Free energy of the ion-electron system (eV)
  ---------------------------------------------------
  alpha Z        PSCENC =         0.06842487
  Ewald energy   TEWEN  =       -15.44151768
  -Hartree energ DENC   =       -38.79297943
  -exchange      EXHF   =         0.00000000
  -V(xc)+E(xc)   XCENC  =         7.80026428
  PAW double counting   =        47.03905609      -48.55444914
  entropy T*S    EENTRO =         0.00000000
  eigenvalues    EBANDS =       -30.84713706
  atomic energy  EATOM  =        78.72222303
  Solvation  Ediel_sol  =         0.00000000
  ---------------------------------------------------
  free energy    TOTEN  =        -0.00611504 eV

  energy without entropy =       -0.00611504  energy(sigma->0) =       -0.00611504


--------------------------------------------------------------------------------------------------------




 average (electrostatic) potential at core
  the test charge radii are     0.5871
  (the norm of the test charge is              1.0000)
       1 -51.1099



 E-fermi : -13.7655     XC(G=0):  -1.2138     alpha+bet : -0.1095

 Fermi energy:       -13.7654965851

 k-point     1 :       0.0000    0.0000    0.0000
  band No.  band energies     occupation 
      1     -15.4236      2.00000
      2      -0.3108      0.00000
      3       3.9592      0.00000
      4       3.9592      0.00000
      5       3.9592      0.00000
      6       4.6876      0.00000
      7       4.6876      0.00000
      8       5.8660      0.00000
      9       8.8738      0.00000
     10       8.8738      0.00000
     11       8.8738      0.00000
     12       9.6789      0.00000
     13       9.6789      0.00000
     14       9.6789      0.00000
     15      10.0803      0.00000
     16      10.0803      0.00000
     17      10.1236      0.00000
     18      10.1236      0.00000
     19      10.1236      0.00000
     20      12.3908      0.00000
     21      14.8760      0.00000
     22      14.8760      0.00000
     23      14.8760      0.00000
     24      15.1229      0.00000
     25      15.1229      0.00000
     26      15.1229      0.00000
     27      15.1914      0.00000
     28      17.0627      0.00000
     29      19.8633      0.00000
     30      19.8633      0.00000
     31      19.8633      0.00000
     32      20.1778      0.00000
     33      20.1778      0.00000
     34      21.8913      0.00000
     35      24.2686      0.00000
     36      24.2688      0.00000
     37      24.2688      0.00000
     38      25.2974      0.00000
     39      25.2974      0.00000
     40      25.3934      0.00000
     41      25.3934      0.00000
     42      25.3934      0.00000
     43      25.6887      0.00000
     44      25.6887      0.00000
     45      25.6887      0.00000
     46      25.9123      0.00000
     47      25.9124      0.00000
     48      25.9124      0.00000
     49      26.0522      0.00000
     50      26.0522      0.00000
     51      26.0522      0.00000
     52      26.1870      0.00000
     53      26.1870      0.00000
     54      26.3119      0.00000
     55      26.3121      0.00000
     56      26.3121      0.00000
     57      26.4066      0.00000
     58      28.8866      0.00000
     59      30.2798      0.00000
     60      30.2802      0.00000
     61      30.2802      0.00000
     62      30.6827      0.00000
     63      30.6827      0.00000
     64      30.6827      0.00000
     65      30.8030      0.00000
     66      31.3831      0.00000
     67      31.3831      0.00000
     68      31.4184      0.00000
     69      31.4195      0.00000
     70      31.4195      0.00000
     71      31.4521      0.00000
     72      31.4523      0.00000
     73      31.4523      0.00000
     74      31.4684      0.00000
     75      31.4684      0.00000
     76      31.4684      0.00000
     77      31.4771      0.00000
     78      31.4771      0.00000
     79      31.4771      0.00000
     80      31.4979      0.00000
     81      31.4980      0.00000
     82      37.1348      0.00000
     83      41.1327      0.00000
     84      41.1335      0.00000
     85      41.1335      0.00000
     86      41.7119      0.00000
     87      41.7119      0.00000
     88      41.7119      0.00000
     89      41.7973      0.00000
     90      41.7973      0.00000
     91      41.8370      0.00000
     92      41.8374      0.00000
     93      41.8374      0.00000
     94      43.7244      0.00000
     95      45.7258      0.00000
     96      45.7262      0.00000
     97      45.7263      0.00000
     98      46.6260      0.00000
     99      46.6260      0.00000
    100      46.6260      0.00000
    101      46.7995      0.00000
    102      46.8185      0.00000
    103      46.8186      0.00000
    104      47.0180      0.00000
    105      47.0190      0.00000
    106      47.0191      0.00000
    107      47.1136      0.00000
    108      47.5156      0.00000
    109      47.5173      0.00000
    110      47.5175      0.00000
    111      47.5294      0.00000
    112      47.5294      0.00000
    113      47.5385      0.00000
    114      47.5385      0.00000
    115      47.5385      0.00000
    116      47.5653      0.00000
    117      47.5659      0.00000
    118      47.5659      0.00000
    119      47.5827      0.00000
    120      47.5827      0.00000
    121      47.5827      0.00000
    122      47.5833      0.00000
    123      47.5838      0.00000
    124      50.3333      0.00000
    125      51.4914      0.00000
    126      51.4928      0.00000
    127      51.4929      0.00000
    128      51.8377      0.00000
    129      51.8378      0.00000
    130      52.5451      0.00000
    131      52.5451      0.00000
    132      52.5451      0.00000
    133      52.5823      0.00000
    134      52.5835      0.00000
    135      52.5836      0.00000
    136      52.6140      0.00000
    137      52.6153      0.00000
    138      52.6153      0.00000
    139      52.6360      0.00000
    140      52.6360      0.00000
    141      52.6360      0.00000
    142      53.0748      0.00000
    143      53.0767      0.00000
    144      53.0767      0.00000
    145      53.0776      0.00000
    146      53.0776      0.00000
    147      53.0812      0.00000
    148      56.2593      0.00000
    149      57.5078      0.00000
    150      57.5082      0.00000
    151      57.5084      0.00000
    152      57.9039      0.00000
    153      57.9039      0.00000
    154      57.9396      0.00000
    155      57.9397      0.00000
    156      57.9397      0.00000
    157      58.0550      0.00000
    158      58.0567      0.00000
    159      58.0568      0.00000
    160      58.0717      0.00000
    161      58.0730      0.00000
    162      58.0731      0.00000
    163      58.0921      0.00000
    164      58.0940      0.00000
    165      58.0940      0.00000
    166      58.0940      0.00000
    167      58.1332      0.00000
    168      58.1332      0.00000
    169      58.1332      0.00000
    170      58.1412      0.00000
    171      58.1415      0.00000
    172      61.9928      0.00000
    173      63.0872      0.00000
    174      63.0889      0.00000
    175      63.0891      0.00000
    176      63.2717      0.00000
    177      63.2717      0.00000
    178      63.2717      0.00000
    179      63.3440      0.00000
    180      65.3335      0.00000
    181      67.4053      0.00000
    182      67.4080      0.00000
    183      67.4082      0.00000
    184      68.0978      0.00000
    185      68.0979      0.00000
    186      68.0979      0.00000
    187      68.2182      0.00000
    188      68.2185      0.00000
    189      68.3115      0.00000
    190      68.3123      0.00000
    191      68.3125      0.00000
    192      68.9291      0.00000
    193      68.9292      0.00000
    194      68.9409      0.00000
    195      68.9417      0.00000
    196      68.9419      0.00000
    197      68.9748      0.00000
    198      68.9748      0.00000
    199      68.9748      0.00000
    200      68.9820      0.00000
    201      68.9869      0.00000
    202      68.9871      0.00000
    203      69.0003      0.00000
    204      71.4939      0.00000
    205      72.7510      0.00000
    206      72.7537      0.00000
    207      72.7539      0.00000
    208      73.2926      0.00000
    209      73.2926      0.00000
    210      73.2926      0.00000
    211      73.5579      0.00000
    212      73.7542      0.00000
    213      73.7543      0.00000
    214      73.8759      0.00000
    215      73.8804      0.00000
    216      73.8804      0.00000
    217      73.9160      0.00000
    218      73.9183      0.00000
    219      73.9184      0.00000
    220      73.9475      0.00000
    221      73.9478      0.00000
    222      73.9478      0.00000
    223      73.9843      0.00000
    224      73.9844      0.00000
    225      73.9844      0.00000
    226      73.9989      0.00000
    227      74.0022      0.00000
    228      74.4085      0.00000
    229      74.4085      0.00000
    230      74.4152      0.00000
    231      74.4164      0.00000
    232      74.4165      0.00000
    233      74.4300      0.00000
    234      74.4310      0.00000
    235      74.4310      0.00000
    236      74.4325      0.00000
    237      74.4326      0.00000
    238      74.4326      0.00000
    239      74.4438      0.00000
    240      74.4441      0.00000
    241      74.4441      0.00000
    242      74.4510      0.00000
    243      74.4512      0.00000
    244      74.6058      0.00000
    245      74.6118      0.00000
    246      74.6146      0.00000
    247      74.6148      0.00000
    248      74.6227      0.00000
    249      74.6228      0.00000
    250      74.6228      0.00000
    251      74.6307      0.00000
    252      81.8379      0.00000
    253      84.0752      0.00000
    254      84.0822      0.00000
    255      84.0823      0.00000
    256      84.3134      0.00000
    257      84.3136      0.00000
    258      86.1675      0.00000
    259      88.2017      0.00000
    260      88.2046      0.00000
    261      88.2047      0.00000
    262      89.1697      0.00000
    263      89.1699      0.00000
    264      89.2982      0.00000
    265      89.2984      0.00000
    266      89.2984      0.00000
    267      89.5504      0.00000
    268      89.5908      0.00000
    269      89.5993      0.00000
    270      89.5994      0.00000
    271      89.7605      0.00000
    272      90.1558      0.00000
    273      90.1602      0.00000
    274      90.1602      0.00000
    275      90.1790      0.00000
    276      90.1791      0.00000
    277      90.1791      0.00000
    278      90.1951      0.00000
    279      90.1955      0.00000
    280      90.1955      0.00000
    281      90.2055      0.00000
    282      90.2059      0.00000
    283      90.2061      0.00000
    284      90.4847      0.00000
    285      90.4904      0.00000
    286      90.4910      0.00000
    287      90.5011      0.00000
    288      90.5011      0.00000
    289      90.5011      0.00000
    290      90.5011      0.00000
    291      90.5011      0.00000
    292      90.5012      0.00000
    293      90.5013      0.00000
    294      90.5017      0.00000
    295      90.5040      0.00000
    296      90.5043      0.00000
    297      90.5098      0.00000
    298      90.5098      0.00000
    299      90.5098      0.00000
    300      90.6719      0.00000
    301      90.6721      0.00000
    302      90.6728      0.00000
    303      90.6728      0.00000
    304      90.6729      0.00000
    305      90.6757      0.00000
    306      93.6602      0.00000
    307      94.7132      0.00000
    308      94.7178      0.00000
    309      94.7181      0.00000
    310      95.2144      0.00000
    311      95.2145      0.00000
    312      95.2145      0.00000
    313      95.2162      0.00000
    314      95.2163      0.00000
    315      95.3770      0.00000
    316      95.3805      0.00000
    317      95.3807      0.00000
    318      95.5552      0.00000
    319      95.5708      0.00000
    320      95.5709      0.00000
    321      95.5833      0.00000
    322      95.5835      0.00000
    323      95.6592      0.00000
    324      95.6639      0.00000
    325      95.6644      0.00000
    326      95.6644      0.00000
    327      95.6874      0.00000
    328      95.6894      0.00000
    329      95.6895      0.00000
    330      95.6911      0.00000
    331      95.6917      0.00000
    332      95.6922      0.00000
    333      95.6977      0.00000
    334      95.6977      0.00000
    335      95.6977      0.00000
    336      95.7112      0.00000
    337      95.7257      0.00000
    338      95.7278      0.00000
    339      95.7279      0.00000
    340      95.7279      0.00000
    341      95.7320      0.00000
    342      99.5737      0.00000
    343     100.4292      0.00000
    344     100.4378      0.00000
    345     100.4379      0.00000
    346     100.7182      0.00000
    347     100.7185      0.00000
    348     100.7185      0.00000
    349     100.8927      0.00000
    350     100.8928      0.00000
    351     100.9105      0.00000
    352     100.9111      0.00000
    353     100.9118      0.00000
    354     100.9484      0.00000
    355     101.0265      0.00000
    356     101.0269      0.00000
    357     101.0269      0.00000
    358     101.0428      0.00000
    359     101.0469      0.00000
    360     101.0470      0.00000
    361     101.0575      0.00000
    362     101.0615      0.00000
    363     101.0615      0.00000
    364     101.0616      0.00000
    365     101.0630      0.00000
    366     104.4411      0.00000
    367     105.5787      0.00000
    368     105.5916      0.00000
    369     105.5925      0.00000
    370     105.9414      0.00000
    371     105.9440      0.00000
    372     106.0807      0.00000
    373     106.0812      0.00000
    374     106.0812      0.00000
    375     106.1822      0.00000
    376     106.1889      0.00000
    377     106.1890      0.00000
    378     106.2041      0.00000
    379     106.2209      0.00000
    380     106.2211      0.00000
    381     106.2687      0.00000
    382     106.2697      0.00000
    383     106.2697      0.00000
    384     106.2986      0.00000
    385     106.3046      0.00000
    386     106.3052      0.00000
    387     106.3217      0.00000
    388     106.3224      0.00000
    389     106.3327      0.00000
    390     109.4591      0.00000
    391     110.6093      0.00000
    392     110.6211      0.00000
    393     110.6219      0.00000
    394     111.1462      0.00000
    395     111.1463      0.00000
    396     111.1463      0.00000
    397     111.1798      0.00000
    398     111.1799      0.00000
    399     111.3964      0.00000
    400     111.4055      0.00000
    401     111.4061      0.00000
    402     111.4115      0.00000
    403     111.4216      0.00000
    404     111.4228      0.00000
    405     111.4230      0.00000
    406     111.4847      0.00000
    407     111.4853      0.00000
    408     111.4854      0.00000
    409     111.5337      0.00000
    410     111.5344      0.00000
    411     111.5344      0.00000
    412     111.5499      0.00000
    413     111.5586      0.00000
    414     111.9518      0.00000
    415     111.9785      0.00000
    416     111.9787      0.00000
    417     111.9825      0.00000
    418     111.9828      0.00000
    419     112.0013      0.00000
    420     112.0069      0.00000
    421     112.0069      0.00000
    422     112.0073      0.00000
    423     112.0116      0.00000
    424     112.0174      0.00000
    425     112.0187      0.00000
    426     112.0245      0.00000
    427     112.0254      0.00000
    428     112.0262      0.00000
    429     112.0276      0.00000
    430     112.0276      0.00000
    431     112.0277      0.00000
    432     112.0423      0.00000
    433     112.0424      0.00000
    434     112.0442      0.00000
    435     112.0452      0.00000
    436     112.0452      0.00000
    437     112.0454      0.00000
    438     115.5102      0.00000
    439     116.0704      0.00000
    440     116.0875      0.00000
    441     116.0889      0.00000
    442     116.2635      0.00000
    443     116.2645      0.00000
    444     116.2645      0.00000
    445     116.3568      0.00000
    446     117.2648      0.00000
    447     117.3375      0.00000
    448     117.3375      0.00000
    449     117.3416      0.00000
    450     117.3423      0.00000
    451     117.3492      0.00000
    452     117.3496      0.00000
    453     117.3498      0.00000
    454     117.3502      0.00000
    455     117.3534      0.00000
    456     117.3538      0.00000
    457     117.3625      0.00000
    458     117.3631      0.00000
    459     117.3632      0.00000
    460     117.3634      0.00000
    461     117.3645      0.00000
    462     124.5873      0.00000
    463     127.0511      0.00000
    464     127.0625      0.00000
    465     127.0627      0.00000
    466     127.5261      0.00000
    467     127.5299      0.00000
    468     127.5299      0.00000
    469     127.6690      0.00000
    470     127.6872      0.00000
    471     127.6872      0.00000
    472     127.7453      0.00000
    473     127.7899      0.00000
    474     127.7901      0.00000
    475     127.7926      0.00000
    476     127.7985      0.00000
    477     127.8017      0.00000
    478     127.8319      0.00000
    479     127.8322      0.00000
    480     127.8322      0.00000
    481     127.8405      0.00000
    482     127.8407      0.00000
    483     127.8408      0.00000
    484     127.8560      0.00000
    485     127.8605      0.00000
    486     129.9625      0.00000
    487     131.5638      0.00000
    488     131.5871      0.00000
    489     131.5879      0.00000
    490     132.2598      0.00000
    491     132.2611      0.00000
    492     132.4045      0.00000
    493     132.4058      0.00000
    494     132.4058      0.00000
    495     132.5354      0.00000
    496     132.5671      0.00000
    497     132.5671      0.00000
    498     132.7863      0.00000
    499     132.7916      0.00000
    500     132.7962      0.00000
    501     132.8019      0.00000
    502     132.8023      0.00000
    503     132.8845      0.00000
    504     133.3579      0.00000
    505     133.4074      0.00000
    506     133.4079      0.00000
    507     133.4098      0.00000
    508     133.4099      0.00000
    509     133.4099      0.00000
    510     133.4110      0.00000
    511     133.4112      0.00000
    512     133.4177      0.00000
    513     133.4203      0.00000
    514     133.4206      0.00000
    515     133.4304      0.00000
    516     135.7833      0.00000
    517     136.8101      0.00000
    518     136.8803      0.00000
    519     136.8810      0.00000
    520     137.3477      0.00000
    521     137.3487      0.00000
    522     137.8499      0.00000
    523     137.8509      0.00000
    524     137.8509      0.00000
    525     137.9634      0.00000
    526     137.9964      0.00000
    527     137.9965      0.00000
    528     138.1230      0.00000
    529     138.1244      0.00000
    530     138.1391      0.00000
    531     138.1391      0.00000
    532     138.2000      0.00000
    533     138.2433      0.00000
    534     138.2434      0.00000
    535     138.3496      0.00000
    536     138.3582      0.00000
    537     138.3582      0.00000
    538     138.3751      0.00000
    539     138.4008      0.00000
    540     138.4017      0.00000
    541     138.4040      0.00000
    542     138.4096      0.00000
    543     138.4096      0.00000
    544     138.4106      0.00000
    545     138.4237      0.00000
    546     138.4931      0.00000
    547     138.5216      0.00000
    548     138.5216      0.00000
    549     138.5232      0.00000
    550     138.5482      0.00000
    551     138.5482      0.00000
    552     138.5483      0.00000
    553     138.5483      0.00000
    554     138.5487      0.00000
    555     138.5688      0.00000
    556     138.5693      0.00000
    557     138.5694      0.00000
    558     138.6906      0.00000
    559     138.8319      0.00000
    560     138.8320      0.00000
    561     138.8362      0.00000
    562     138.8364      0.00000
    563     138.8371      0.00000
    564     138.8447      0.00000
    565     138.8448      0.00000
    566     138.8448      0.00000
    567     138.8485      0.00000
    568     138.8488      0.00000
    569     138.8547      0.00000
    570     138.8641      0.00000
    571     138.8804      0.00000
    572     138.8816      0.00000
    573     138.8816      0.00000
    574     138.8816      0.00000
    575     138.8853      0.00000
    576     138.8883      0.00000
    577     138.8884      0.00000
    578     138.8906      0.00000
    579     138.8907      0.00000
    580     138.8909      0.00000
    581     138.8925      0.00000
    582     139.0043      0.00000
    583     139.0181      0.00000
    584     139.0182      0.00000
    585     139.0183      0.00000
    586     139.0188      0.00000
    587     139.0215      0.00000
    588     142.9055      0.00000
    589     143.3924      0.00000
    590     143.4606      0.00000
    591     143.4607      0.00000
    592     143.6746      0.00000
    593     143.6754      0.00000
    594     143.7369      0.00000
    595     143.7406      0.00000
    596     143.7406      0.00000
    597     143.7458      0.00000
    598     143.8067      0.00000
    599     143.8246      0.00000
    600     143.8255      0.00000
    601     143.8964      0.00000
    602     143.9622      0.00000
    603     143.9748      0.00000
    604     143.9750      0.00000
    605     143.9807      0.00000
    606     143.9811      0.00000
    607     143.9812      0.00000
    608     143.9880      0.00000
    609     143.9889      0.00000
    610     143.9889      0.00000
    611     143.9912      0.00000
    612     143.9967      0.00000
    613     143.9981      0.00000
    614     144.0636      0.00000
    615     144.0678      0.00000
    616     144.0685      0.00000
    617     144.0686      0.00000
    618     144.0686      0.00000
    619     144.0703      0.00000
    620     150.3869      0.00000
    621     152.4133      0.00000
    622     152.5957      0.00000
    623     152.5971      0.00000
    624     153.3716      0.00000
    625     153.3735      0.00000
    626     153.3736      0.00000
    627     153.6336      0.00000
    628     153.9068      0.00000
    629     153.9077      0.00000
    630     154.0905      0.00000
    631     154.1708      0.00000
    632     154.1710      0.00000
    633     154.2164      0.00000
    634     154.2326      0.00000
    635     154.2339      0.00000
    636     154.3412      0.00000
    637     154.3459      0.00000
    638     154.3459      0.00000
    639     154.3570      0.00000
    640     154.3973      0.00000
    641     154.3974      0.00000
    642     154.4013      0.00000
    643     154.4260      0.00000
    644     154.4659      0.00000
    645     154.4924      0.00000
    646     154.5361      0.00000
    647     154.5364      0.00000
    648     154.5510      0.00000
    649     154.5511      0.00000
    650     154.5531      0.00000
    651     154.5717      0.00000
    652     154.5773      0.00000
    653     154.6017      0.00000
    654     154.6034      0.00000
    655     154.6034      0.00000
    656     154.6125      0.00000
    657     154.6149      0.00000
    658     154.6149      0.00000
    659     154.6197      0.00000
    660     154.6233      0.00000
    661     154.6261      0.00000
    662     154.6282      0.00000
    663     154.6480      0.00000
    664     154.6480      0.00000
    665     154.6489      0.00000
    666     154.6492      0.00000
    667     154.6575      0.00000
    668     154.9096      0.00000
    669     154.9801      0.00000
    670     154.9801      0.00000
    671     154.9801      0.00000
    672     154.9805      0.00000
    673     154.9808      0.00000
    674     154.9808      0.00000
    675     154.9817      0.00000
    676     154.9821      0.00000
    677     154.9823      0.00000
    678     154.9825      0.00000
    679     154.9829      0.00000
    680     154.9831      0.00000
    681     154.9832      0.00000
    682     154.9842      0.00000
    683     154.9842      0.00000
    684     155.1605      0.00000
    685     155.1730      0.00000
    686     155.1741      0.00000
    687     155.1742      0.00000
    688     155.1744      0.00000
    689     155.1760      0.00000
    690     155.1768      0.00000
    691     155.1769      0.00000
    692     158.6806      0.00000
    693     159.1897      0.00000
    694     159.2305      0.00000
    695     159.2365      0.00000
    696     159.4268      0.00000
    697     159.4291      0.00000
    698     159.6424      0.00000
    699     159.6467      0.00000
    700     159.6468      0.00000
    701     159.6881      0.00000
    702     159.7184      0.00000
    703     159.7208      0.00000
    704     159.7301      0.00000
    705     159.7368      0.00000
    706     159.7374      0.00000
    707     159.7681      0.00000
    708     159.7706      0.00000
    709     159.7706      0.00000
    710     159.8486      0.00000
    711     159.8750      0.00000
    712     159.8751      0.00000
    713     159.8753      0.00000
    714     159.8814      0.00000
    715     159.8844      0.00000
    716     160.2773      0.00000
    717     160.3226      0.00000
    718     160.3235      0.00000
    719     160.3260      0.00000
    720     160.3293      0.00000
    721     160.3430      0.00000
    722     160.3449      0.00000
    723     160.3534      0.00000
    724     160.3534      0.00000
    725     160.3535      0.00000
    726     160.3591      0.00000
    727     160.3599      0.00000
    728     160.3613      0.00000
    729     160.3626      0.00000
    730     160.3640      0.00000
    731     160.3641      0.00000
    732     160.3642      0.00000
    733     160.3692      0.00000
    734     160.3861      0.00000
    735     160.3874      0.00000
    736     160.3876      0.00000
    737     160.3877      0.00000
    738     160.3877      0.00000
    739     160.3890      0.00000
    740     169.0301      0.00000
    741     170.1643      0.00000
    742     170.2164      0.00000
    743     170.2167      0.00000
    744     170.4406      0.00000
    745     170.4451      0.00000
    746     170.4452      0.00000
    747     170.5143      0.00000
    748     170.5151      0.00000
    749     170.5234      0.00000
    750     170.5305      0.00000
    751     170.5320      0.00000
    752     173.2617      0.00000
    753     174.0337      0.00000
    754     174.9401      0.00000
    755     174.9411      0.00000
    756     175.1738      0.00000
    757     175.5367      0.00000
    758     175.5367      0.00000
    759     175.5398      0.00000
    760     175.7613      0.00000
    761     175.7626      0.00000
    762     175.8875      0.00000
    763     175.8886      0.00000
    764     175.9000      0.00000
    765     175.9368      0.00000
    766     176.0257      0.00000
    767     176.0267      0.00000
    768     176.0683      0.00000
    769     176.0710      0.00000
    770     176.0711      0.00000
    771     176.0796      0.00000
    772     176.0878      0.00000
    773     176.0878      0.00000
    774     176.0886      0.00000
    775     176.1329      0.00000
    776     176.1530      0.00000
    777     176.1644      0.00000
    778     176.1651      0.00000
    779     176.2042      0.00000
    780     176.2115      0.00000
    781     176.2169      0.00000
    782     176.2185      0.00000
    783     176.2205      0.00000
    784     176.2243      0.00000
    785     176.2243      0.00000
    786     176.2250      0.00000
    787     176.2504      0.00000
    788     176.2523      0.00000
    789     176.2579      0.00000
    790     176.2579      0.00000
    791     176.2582      0.00000
    792     176.2643      0.00000
    793     176.2674      0.00000
    794     176.2764      0.00000
    795     176.2769      0.00000
    796     176.2836      0.00000
    797     176.2836      0.00000
    798     176.2842      0.00000
    799     176.2877      0.00000
    800     179.3186      0.00000
    801     179.8257      0.00000
    802     180.2135      0.00000
    803     180.2154      0.00000
    804     180.5344      0.00000
    805     180.5418      0.00000
    806     180.5419      0.00000
    807     180.6428      0.00000
    808     180.7300      0.00000
    809     181.1742      0.00000
    810     181.1742      0.00000
    811     181.2188      0.00000
    812     181.2209      0.00000
    813     181.2274      0.00000
    814     181.2786      0.00000
    815     181.2804      0.00000
    816     181.2869      0.00000
    817     181.2920      0.00000
    818     181.2920      0.00000
    819     181.2923      0.00000
    820     181.3618      0.00000
    821     181.4017      0.00000
    822     181.4027      0.00000
    823     181.4191      0.00000
    824     181.4194      0.00000
    825     181.4242      0.00000
    826     181.4247      0.00000
    827     181.4248      0.00000
    828     181.4459      0.00000
    829     181.4602      0.00000
    830     181.4634      0.00000
    831     181.4788      0.00000
    832     181.6816      0.00000
    833     181.8050      0.00000
    834     181.8056      0.00000
    835     181.8065      0.00000
    836     181.8065      0.00000
    837     181.8068      0.00000
    838     181.8077      0.00000
    839     181.8078      0.00000
    840     181.8078      0.00000
    841     181.8086      0.00000
    842     181.8091      0.00000
    843     181.8095      0.00000
    844     181.8100      0.00000
    845     181.8109      0.00000
    846     181.8109      0.00000
    847     181.8132      0.00000
    848     184.5853      0.00000
    849     185.4248      0.00000
    850     186.2240      0.00000
    851     186.2274      0.00000
    852     186.4324      0.00000
    853     186.5772      0.00000
    854     186.5772      0.00000
    855     186.5862      0.00000
    856     186.5923      0.00000
    857     186.5948      0.00000
    858     186.7207      0.00000
    859     186.7207      0.00000
    860     186.7391      0.00000
    861     186.8230      0.00000
    862     186.8232      0.00000
    863     186.8594      0.00000
    864     186.8717      0.00000
    865     186.8717      0.00000
    866     186.8718      0.00000
    867     186.8720      0.00000
    868     186.8946      0.00000
    869     186.8953      0.00000
    870     186.9234      0.00000
    871     186.9234      0.00000
    872     186.9235      0.00000
    873     186.9357      0.00000
    874     186.9370      0.00000
    875     186.9560      0.00000
    876     186.9597      0.00000
    877     186.9631      0.00000
    878     186.9646      0.00000
    879     186.9773      0.00000
    880     186.9821      0.00000
    881     186.9899      0.00000
    882     186.9900      0.00000
    883     186.9903      0.00000
    884     186.9939      0.00000
    885     187.0031      0.00000
    886     187.0032      0.00000
    887     187.0034      0.00000
    888     187.0113      0.00000
    889     187.0115      0.00000
    890     187.0115      0.00000
    891     187.0155      0.00000
    892     187.0168      0.00000
    893     187.0185      0.00000
    894     187.0185      0.00000
    895     187.0207      0.00000
    896     190.7387      0.00000
    897     190.9875      0.00000
    898     191.4514      0.00000
    899     191.4534      0.00000
    900     191.6010      0.00000
    901     191.6250      0.00000
    902     191.6514      0.00000
    903     191.9941      0.00000
    904     191.9950      0.00000
    905     192.0007      0.00000
    906     192.0112      0.00000
    907     192.0130      0.00000
    908     192.0132      0.00000
    909     192.0582      0.00000
    910     192.1108      0.00000
    911     192.2501      0.00000
    912     192.2530      0.00000
    913     192.2559      0.00000
    914     192.2559      0.00000
    915     192.2710      0.00000
    916     192.2758      0.00000
    917     192.2759      0.00000
    918     192.2772      0.00000
    919     192.2953      0.00000
    920     192.2958      0.00000
    921     192.3058      0.00000
    922     192.3065      0.00000
    923     192.3066      0.00000
    924     192.3066      0.00000
    925     192.3108      0.00000
    926     195.4704      0.00000
    927     195.7801      0.00000
    928     196.3415      0.00000
    929     196.3473      0.00000
    930     196.4647      0.00000
    931     196.4660      0.00000
    932     196.6469      0.00000
    933     197.5839      0.00000
    934     197.5840      0.00000
    935     197.5841      0.00000
    936     197.5890      0.00000
    937     197.5895      0.00000
    938     197.5960      0.00000
    939     197.5968      0.00000
    940     197.6001      0.00000
    941     197.6002      0.00000
    942     197.6002      0.00000
    943     197.6105      0.00000
    944     198.0554      0.00000
    945     198.0987      0.00000
    946     198.0995      0.00000
    947     198.0997      0.00000
    948     198.0997      0.00000
    949     198.1005      0.00000
    950     200.1773      0.00000
    951     200.5932      0.00000
    952     201.7205      0.00000
    953     201.7246      0.00000
    954     201.7620      0.00000
    955     202.2268      0.00000
    956     202.2268      0.00000
    957     202.2341      0.00000
    958     202.3306      0.00000
    959     202.3340      0.00000
    960     202.4493      0.00000
    961     202.5418      0.00000
    962     202.5444      0.00000
    963     202.5593      0.00000
    964     202.6072      0.00000
    965     202.6098      0.00000
    966     202.6516      0.00000
    967     202.6573      0.00000
    968     202.6574      0.00000
    969     202.6661      0.00000
    970     202.6918      0.00000
    971     202.6919      0.00000
    972     202.6927      0.00000
    973     202.7282      0.00000
    974     202.7828      0.00000
    975     202.9126      0.00000
    976     202.9376      0.00000
    977     202.9426      0.00000
    978     202.9461      0.00000
    979     202.9463      0.00000
    980     202.9805      0.00000
    981     203.0888      0.00000
    982     203.0888      0.00000
    983     203.0889      0.00000
    984     203.0894      0.00000
    985     203.0899      0.00000
    986     203.0904      0.00000
    987     203.0904      0.00000
    988     203.0905      0.00000
    989     203.0919      0.00000
    990     203.0921      0.00000
    991     203.0944      0.00000
    992     203.1364      0.00000
    993     203.1592      0.00000
    994     203.1596      0.00000
    995     203.1599      0.00000
    996     203.1599      0.00000
    997     203.1606      0.00000
    998     203.2237      0.00000
    999     203.2764      0.00000
   1000     203.2765      0.00000
   1001     203.2782      0.00000
   1002     203.2804      0.00000
   1003     203.2879      0.00000
   1004     203.2897      0.00000
   1005     203.2897      0.00000
   1006     203.2906      0.00000
   1007     203.2982      0.00000
   1008     203.3007      0.00000
   1009     203.3031      0.00000
   1010     203.3063      0.00000
   1011     203.3063      0.00000
   1012     203.3064      0.00000
   1013     203.3076      0.00000
   1014     203.3151      0.00000
   1015     203.3165      0.00000
   1016     203.3177      0.00000
   1017     203.3182      0.00000
   1018     203.3186      0.00000
   1019     203.3186      0.00000
   1020     203.3186      0.00000
   1021     203.3280      0.00000
   1022     208.7163      0.00000
   1023     211.3582      0.00000
   1024     212.8513      0.00000
   1025     212.8543      0.00000
   1026     212.9626      0.00000
   1027     213.1453      0.00000
   1028     213.1485      0.00000
   1029     213.5101      0.00000
   1030     213.5104      0.00000
   1031     213.5107      0.00000
   1032     213.5626      0.00000
   1033     213.5650      0.00000
   1034     213.5704      0.00000
   1035     213.5729      0.00000
   1036     213.5747      0.00000
   1037     213.6044      0.00000
   1038     213.6046      0.00000
   1039     213.6047      0.00000
   1040     213.6804      0.00000
   1041     213.7094      0.00000
   1042     213.7097      0.00000
   1043     213.7150      0.00000
   1044     213.7166      0.00000
   1045     213.7267      0.00000
   1046     214.8545      0.00000
   1047     215.7004      0.00000
   1048     216.9906      0.00000
   1049     216.9934      0.00000
   1050     217.0924      0.00000
   1051     217.7024      0.00000
   1052     217.7025      0.00000
   1053     217.7065      0.00000
   1054     218.0897      0.00000
   1055     218.0899      0.00000
   1056     218.1939      0.00000
   1057     218.2795      0.00000
   1058     218.2808      0.00000
   1059     218.3444      0.00000
   1060     218.4684      0.00000
   1061     218.4690      0.00000
   1062     218.4974      0.00000
   1063     218.4975      0.00000
   1064     218.4977      0.00000
   1065     218.5487      0.00000
   1066     218.5590      0.00000
   1067     218.6400      0.00000
   1068     218.6461      0.00000
   1069     218.6797      0.00000
   1070     218.6817      0.00000
   1071     218.7085      0.00000
   1072     218.7894      0.00000
   1073     218.7894      0.00000
   1074     218.7942      0.00000
   1075     218.8121      0.00000
   1076     218.8606      0.00000
   1077     218.8624      0.00000
   1078     218.8657      0.00000
   1079     218.8805      0.00000
   1080     218.8904      0.00000
   1081     218.8942      0.00000
   1082     218.9055      0.00000
   1083     218.9055      0.00000
   1084     218.9099      0.00000
   1085     218.9510      0.00000
   1086     218.9546      0.00000
   1087     218.9548      0.00000
   1088     218.9551      0.00000
   1089     218.9641      0.00000
   1090     219.0301      0.00000
   1091     219.3329      0.00000
   1092     219.3399      0.00000
   1093     219.3402      0.00000
   1094     219.3453      0.00000
   1095     219.3496      0.00000
   1096     219.3497      0.00000
   1097     219.3498      0.00000
   1098     219.3548      0.00000
   1099     219.3549      0.00000
   1100     219.3571      0.00000
   1101     219.3611      0.00000
   1102     219.3849      0.00000
   1103     219.4011      0.00000
   1104     219.4016      0.00000
   1105     219.4016      0.00000
   1106     219.4017      0.00000
   1107     219.4023      0.00000
   1108     219.4028      0.00000
   1109     219.4028      0.00000
   1110     219.4031      0.00000
   1111     219.4032      0.00000
   1112     219.4033      0.00000
   1113     219.4035      0.00000
   1114     219.4036      0.00000
   1115     219.4037      0.00000
   1116     219.4037      0.00000
   1117     219.4095      0.00000
   1118     219.4293      0.00000
   1119     219.4323      0.00000
   1120     219.4324      0.00000
   1121     219.4332      0.00000
   1122     219.4374      0.00000
   1123     219.4459      0.00000
   1124     219.4471      0.00000
   1125     219.4475      0.00000
   1126     219.4476      0.00000
   1127     219.4489      0.00000
   1128     219.4520      0.00000
   1129     219.4523      0.00000
   1130     219.4535      0.00000
   1131     219.4539      0.00000
   1132     219.4550      0.00000
   1133     219.4550      0.00000
   1134     219.4550      0.00000
   1135     219.4661      0.00000
   1136     219.4696      0.00000
   1137     219.4708      0.00000
   1138     219.4711      0.00000
   1139     219.4711      0.00000
   1140     219.4711      0.00000
   1141     219.4859      0.00000
   1142     221.8590      0.00000
   1143     223.2771      0.00000
   1144     223.7039      0.00000
   1145     223.7067      0.00000
   1146     223.7544      0.00000
   1147     223.8941      0.00000
   1148     223.8942      0.00000
   1149     223.9017      0.00000
   1150     223.9982      0.00000
   1151     223.9985      0.00000
   1152     224.0159      0.00000
   1153     224.0182      0.00000
   1154     224.0780      0.00000
   1155     224.2444      0.00000
   1156     224.2793      0.00000
   1157     224.2798      0.00000
   1158     224.2807      0.00000
   1159     224.3073      0.00000
   1160     224.3097      0.00000
   1161     224.3219      0.00000
   1162     224.3286      0.00000
   1163     224.3287      0.00000
   1164     224.3289      0.00000
   1165     224.3301      0.00000
   1166     224.4415      0.00000
   1167     224.7536      0.00000
   1168     224.7537      0.00000
   1169     224.7553      0.00000
   1170     224.7574      0.00000
   1171     224.7612      0.00000
   1172     224.7638      0.00000
   1173     224.7638      0.00000
   1174     224.7638      0.00000
   1175     224.7715      0.00000
   1176     224.7735      0.00000
   1177     224.7817      0.00000
   1178     224.7955      0.00000
   1179     224.8189      0.00000
   1180     224.8204      0.00000
   1181     224.8206      0.00000
   1182     224.8207      0.00000
   1183     224.8219      0.00000
   1184     224.8251      0.00000
   1185     224.8256      0.00000
   1186     224.8257      0.00000
   1187     224.8257      0.00000
   1188     224.8265      0.00000
   1189     224.8388      0.00000
   1190     226.3449      0.00000
   1191     229.0219      0.00000
   1192     229.4298      0.00000
   1193     229.4425      0.00000
   1194     229.5509      0.00000
   1195     229.5541      0.00000
   1196     229.5547      0.00000
   1197     229.6064      0.00000
   1198     229.6496      0.00000
   1199     229.8274      0.00000
   1200     229.8274      0.00000
   1201     229.8436      0.00000
   1202     229.8446      0.00000
   1203     229.8499      0.00000
   1204     229.8509      0.00000
   1205     229.8513      0.00000
   1206     229.8570      0.00000
   1207     229.8583      0.00000
   1208     229.8584      0.00000
   1209     229.8590      0.00000
   1210     229.8601      0.00000
   1211     229.8602      0.00000
   1212     229.8614      0.00000
   1213     229.8812      0.00000
   1214     231.2251      0.00000
   1215     234.1428      0.00000
   1216     234.8022      0.00000
   1217     234.8092      0.00000
   1218     234.9055      0.00000
   1219     234.9837      0.00000
   1220     234.9864      0.00000
   1221     235.0946      0.00000
   1222     235.0948      0.00000
   1223     235.0961      0.00000
   1224     235.1408      0.00000
   1225     235.1424      0.00000
   1226     235.1464      0.00000
   1227     235.1601      0.00000
   1228     235.1670      0.00000
   1229     235.1717      0.00000
   1230     235.1720      0.00000
   1231     235.1734      0.00000
   1232     235.1860      0.00000
   1233     235.2108      0.00000
   1234     235.2297      0.00000
   1235     235.2299      0.00000
   1236     235.2300      0.00000
   1237     235.2376      0.00000
   1238     235.5407      0.00000
   1239     238.1068      0.00000
   1240     239.1797      0.00000
   1241     239.1814      0.00000
   1242     239.2678      0.00000
   1243     239.6686      0.00000
   1244     239.6689      0.00000
   1245     239.6715      0.00000
   1246     239.9132      0.00000
   1247     239.9134      0.00000
   1248     240.0185      0.00000
   1249     240.0198      0.00000
   1250     240.0221      0.00000
   1251     240.0518      0.00000
   1252     240.2276      0.00000
   1253     240.2277      0.00000
   1254     240.2282      0.00000
   1255     240.2444      0.00000
   1256     240.2457      0.00000
   1257     240.2495      0.00000
   1258     240.3264      0.00000
   1259     240.3265      0.00000
   1260     240.3269      0.00000
   1261     240.3473      0.00000
   1262     240.3571      0.00000
   1263     240.3742      0.00000
   1264     240.3744      0.00000
   1265     240.4005      0.00000
   1266     240.4013      0.00000
   1267     240.4053      0.00000
   1268     240.4475      0.00000
   1269     240.4476      0.00000
   1270     240.4479      0.00000
   1271     240.4752      0.00000
   1272     240.4761      0.00000
   1273     240.4838      0.00000
   1274     240.5054      0.00000
   1275     240.5111      0.00000
   1276     240.5225      0.00000
   1277     240.5266      0.00000
   1278     240.5411      0.00000
   1279     240.5444      0.00000
   1280     240.5447      0.00000
   1281     240.5459      0.00000
   1282     240.5622      0.00000
   1283     240.5637      0.00000
   1284     240.5638      0.00000
   1285     240.5743      0.00000
   1286     240.7547      0.00000
   1287     240.8925      0.00000
   1288     240.8932      0.00000
   1289     240.8932      0.00000
   1290     240.8933      0.00000
   1291     240.8957      0.00000
   1292     240.8977      0.00000
   1293     240.8990      0.00000
   1294     240.8994      0.00000
   1295     240.8995      0.00000
   1296     240.9002      0.00000
   1297     240.9009      0.00000
   1298     240.9031      0.00000
   1299     240.9032      0.00000
   1300     240.9032      0.00000
   1301     240.9076      0.00000
   1302     240.9116      0.00000
   1303     240.9163      0.00000
   1304     240.9165      0.00000
   1305     240.9165      0.00000
   1306     240.9167      0.00000
   1307     240.9185      0.00000
   1308     240.9199      0.00000
   1309     240.9247      0.00000
   1310     242.9780      0.00000
   1311     245.0680      0.00000
   1312     245.5007      0.00000
   1313     245.5016      0.00000
   1314     245.5728      0.00000
   1315     245.6814      0.00000
   1316     245.6819      0.00000
   1317     245.7662      0.00000
   1318     245.7663      0.00000
   1319     245.7681      0.00000
   1320     245.8420      0.00000
   1321     245.8443      0.00000
   1322     245.8480      0.00000
   1323     245.8625      0.00000
   1324     245.8829      0.00000
   1325     245.8955      0.00000
   1326     245.9004      0.00000
   1327     245.9007      0.00000
   1328     245.9081      0.00000
   1329     245.9695      0.00000
   1330     245.9699      0.00000
   1331     245.9896      0.00000
   1332     245.9915      0.00000
   1333     245.9948      0.00000
   1334     246.0124      0.00000
   1335     246.0147      0.00000
   1336     246.0292      0.00000
   1337     246.0292      0.00000
   1338     246.0293      0.00000
   1339     246.0391      0.00000
   1340     246.0587      0.00000
   1341     246.0757      0.00000
   1342     246.0772      0.00000
   1343     246.0810      0.00000
   1344     246.0811      0.00000
   1345     246.0812      0.00000
   1346     246.0813      0.00000
   1347     246.0814      0.00000
   1348     246.0815      0.00000
   1349     246.0849      0.00000
   1350     246.0885      0.00000
   1351     246.0899      0.00000
   1352     246.0956      0.00000
   1353     246.0995      0.00000
   1354     246.1001      0.00000
   1355     246.1001      0.00000
   1356     246.1016      0.00000
   1357     246.1068      0.00000
   1358     248.6527      0.00000
   1359     255.7952      0.00000
   1360     256.4193      0.00000
   1361     256.4295      0.00000
   1362     256.5053      0.00000
   1363     256.5095      0.00000
   1364     256.5095      0.00000
   1365     256.5279      0.00000
   1366     256.5759      0.00000
   1367     258.6202      0.00000
   1368     260.4449      0.00000
   1369     260.4476      0.00000
   1370     260.5225      0.00000
   1371     261.0323      0.00000
   1372     261.0342      0.00000
   1373     261.3685      0.00000
   1374     261.3690      0.00000
   1375     261.3701      0.00000
   1376     261.5177      0.00000
   1377     261.5183      0.00000
   1378     261.5392      0.00000
   1379     261.6050      0.00000
   1380     261.6435      0.00000
   1381     261.6459      0.00000
   1382     261.6678      0.00000
   1383     261.6837      0.00000
   1384     261.6837      0.00000
   1385     261.6843      0.00000
   1386     261.7231      0.00000
   1387     261.7298      0.00000
   1388     261.7298      0.00000
   1389     261.7311      0.00000
   1390     261.7562      0.00000
   1391     261.7897      0.00000
   1392     261.7958      0.00000
   1393     261.8002      0.00000
   1394     261.8065      0.00000
   1395     261.8076      0.00000
   1396     262.0235      0.00000
   1397     262.3564      0.00000
   1398     262.3565      0.00000
   1399     262.3586      0.00000
   1400     262.3647      0.00000
   1401     262.3697      0.00000
   1402     262.3708      0.00000
   1403     262.3708      0.00000
   1404     262.3715      0.00000
   1405     262.3765      0.00000
   1406     262.3785      0.00000
   1407     262.3823      0.00000
   1408     262.3850      0.00000
   1409     262.3851      0.00000
   1410     262.3852      0.00000
   1411     262.3857      0.00000
   1412     262.3889      0.00000
   1413     262.3890      0.00000
   1414     262.3891      0.00000
   1415     262.3929      0.00000
   1416     262.3946      0.00000
   1417     262.3946      0.00000
   1418     262.3947      0.00000
   1419     262.4274      0.00000
   1420     262.7202      0.00000
   1421     264.7752      0.00000
   1422     265.6701      0.00000
   1423     265.6829      0.00000
   1424     266.1842      0.00000
   1425     266.1980      0.00000
   1426     266.1984      0.00000
   1427     266.2023      0.00000
   1428     266.2476      0.00000
   1429     266.2624      0.00000
   1430     266.4002      0.00000
   1431     266.4310      0.00000
   1432     266.4317      0.00000
   1433     266.5008      0.00000
   1434     266.5441      0.00000
   1435     267.0202      0.00000
   1436     267.0238      0.00000
   1437     267.0434      0.00000
   1438     267.0458      0.00000
   1439     267.0576      0.00000
   1440     267.0770      0.00000
   1441     267.0774      0.00000
   1442     267.0778      0.00000
   1443     267.1528      0.00000
   1444     267.1576      0.00000
   1445     267.1911      0.00000
   1446     267.2240      0.00000
   1447     267.2240      0.00000
   1448     267.2248      0.00000
   1449     267.2308      0.00000
   1450     267.2440      0.00000
   1451     267.2544      0.00000
   1452     267.2941      0.00000
   1453     267.3065      0.00000
   1454     267.3179      0.00000
   1455     267.3202      0.00000
   1456     267.3203      0.00000
   1457     267.3251      0.00000
   1458     267.3377      0.00000
   1459     267.3379      0.00000
   1460     267.3379      0.00000
   1461     267.3406      0.00000
   1462     267.3585      0.00000
   1463     267.4285      0.00000
   1464     267.4286      0.00000
   1465     267.4289      0.00000
   1466     267.4341      0.00000
   1467     267.4345      0.00000
   1468     267.4351      0.00000
   1469     267.4352      0.00000
   1470     267.4380      0.00000
   1471     267.4380      0.00000
   1472     267.4381      0.00000
   1473     267.4598      0.00000
   1474     267.4918      0.00000
   1475     267.7755      0.00000
   1476     267.7758      0.00000
   1477     267.7758      0.00000
   1478     267.7758      0.00000
   1479     267.7762      0.00000
   1480     267.7767      0.00000
   1481     267.7769      0.00000
   1482     267.7771      0.00000
   1483     267.7771      0.00000
   1484     267.7771      0.00000
   1485     267.7771      0.00000
   1486     267.7771      0.00000
   1487     267.7772      0.00000
   1488     267.7775      0.00000
   1489     267.7977      0.00000
   1490     267.9037      0.00000
   1491     267.9268      0.00000
   1492     267.9268      0.00000
   1493     267.9272      0.00000
   1494     267.9272      0.00000
   1495     267.9378      0.00000
   1496     267.9537      0.00000
   1497     267.9717      0.00000
   1498     267.9718      0.00000
   1499     267.9718      0.00000
   1500     267.9722      0.00000
   1501     267.9731      0.00000
   1502     267.9752      0.00000
   1503     267.9996      0.00000
   1504     269.1693      0.00000
   1505     271.7228      0.00000
   1506     272.2289      0.00000
   1507     272.2398      0.00000
   1508     272.2834      0.00000
   1509     272.4457      0.00000
   1510     272.4468      0.00000
   1511     272.5473      0.00000
   1512     272.5473      0.00000
   1513     272.5494      0.00000
   1514     272.6191      0.00000
   1515     272.6203      0.00000
   1516     272.6711      0.00000
   1517     272.6726      0.00000
   1518     272.6786      0.00000
   1519     272.6832      0.00000
   1520     272.6851      0.00000
   1521     272.7009      0.00000
   1522     272.7191      0.00000
   1523     272.8719      0.00000
   1524     272.8719      0.00000
   1525     272.8721      0.00000
   1526     272.8775      0.00000
   1527     272.8782      0.00000
   1528     272.8794      0.00000
   1529     272.8802      0.00000
   1530     272.8811      0.00000
   1531     272.8811      0.00000
   1532     272.8818      0.00000
   1533     272.8868      0.00000
   1534     272.8881      0.00000
   1535     272.8990      0.00000
   1536     272.8994      0.00000
   1537     272.8995      0.00000
   1538     272.9014      0.00000
   1539     272.9049      0.00000
   1540     272.9062      0.00000
   1541     272.9072      0.00000
   1542     272.9086      0.00000
   1543     272.9088      0.00000
   1544     272.9088      0.00000
   1545     272.9446      0.00000
   1546     272.9650      0.00000
   1547     272.9772      0.00000
   1548     272.9778      0.00000
   1549     272.9779      0.00000
   1550     272.9787      0.00000
   1551     272.9802      0.00000
   1552     274.0133      0.00000
   1553     277.1308      0.00000
   1554     277.6373      0.00000
   1555     277.6564      0.00000
   1556     277.7507      0.00000
   1557     277.8367      0.00000
   1558     277.8369      0.00000
   1559     277.8373      0.00000
   1560     277.8670      0.00000
   1561     277.8678      0.00000
   1562     277.9074      0.00000
   1563     277.9129      0.00000
   1564     278.0037      0.00000
   1565     278.0712      0.00000
   1566     278.0739      0.00000
   1567     278.0740      0.00000
   1568     278.0757      0.00000
   1569     278.0802      0.00000
   1570     278.0901      0.00000
   1571     278.0905      0.00000
   1572     278.0911      0.00000
   1573     278.1075      0.00000
   1574     278.1116      0.00000
   1575     278.1226      0.00000
   1576     279.0507      0.00000
   1577     281.3990      0.00000
   1578     282.3560      0.00000
   1579     282.3612      0.00000
   1580     282.4280      0.00000
   1581     282.7466      0.00000
   1582     282.7501      0.00000
   1583     283.0288      0.00000
   1584     283.0288      0.00000
   1585     283.0313      0.00000
   1586     283.1821      0.00000
   1587     283.1852      0.00000
   1588     283.1936      0.00000
   1589     283.2043      0.00000
   1590     283.2119      0.00000
   1591     283.2481      0.00000
   1592     283.3208      0.00000
   1593     283.3210      0.00000
   1594     283.3215      0.00000
   1595     283.3608      0.00000
   1596     283.3630      0.00000
   1597     283.4391      0.00000
   1598     283.4417      0.00000
   1599     283.4643      0.00000
   1600     283.4709      0.00000
   1601     283.4935      0.00000
   1602     283.5266      0.00000
   1603     283.5368      0.00000
   1604     283.5420      0.00000
   1605     283.5615      0.00000
   1606     283.5655      0.00000
   1607     283.5656      0.00000
   1608     283.5663      0.00000
   1609     283.5832      0.00000
   1610     283.5833      0.00000
   1611     283.5911      0.00000
   1612     283.5917      0.00000
   1613     283.5917      0.00000
   1614     283.5917      0.00000
   1615     283.6026      0.00000
   1616     283.6146      0.00000
   1617     283.6199      0.00000
   1618     283.6235      0.00000
   1619     283.6246      0.00000
   1620     283.6301      0.00000
   1621     283.6338      0.00000
   1622     283.6342      0.00000
   1623     283.6344      0.00000
   1624     283.6393      0.00000
   1625     283.6415      0.00000
   1626     283.6416      0.00000
   1627     283.6430      0.00000
   1628     283.6455      0.00000
   1629     283.6506      0.00000
   1630     283.6506      0.00000
   1631     283.6507      0.00000
   1632     283.6517      0.00000
   1633     283.6525      0.00000
   1634     283.6587      0.00000
   1635     283.6644      0.00000
   1636     283.6665      0.00000
   1637     283.6751      0.00000
   1638     283.6751      0.00000
   1639     283.6768      0.00000
   1640     283.6776      0.00000
   1641     283.6780      0.00000
   1642     283.6826      0.00000
   1643     283.6893      0.00000
   1644     283.6895      0.00000
   1645     283.6896      0.00000
   1646     283.6928      0.00000
   1647     283.7411      0.00000
   1648     285.3837      0.00000
   1649     287.1415      0.00000
   1650     287.7724      0.00000
   1651     287.7735      0.00000
   1652     287.8203      0.00000
   1653     288.1300      0.00000
   1654     288.1315      0.00000
   1655     288.2460      0.00000
   1656     288.2463      0.00000
   1657     288.2471      0.00000
   1658     288.4035      0.00000
   1659     288.4042      0.00000
   1660     288.4068      0.00000
   1661     288.4674      0.00000
   1662     288.5112      0.00000
   1663     288.5114      0.00000
   1664     288.5454      0.00000
   1665     288.5459      0.00000
   1666     288.5461      0.00000
   1667     288.5890      0.00000
   1668     288.6461      0.00000
   1669     288.6463      0.00000
   1670     288.6480      0.00000
   1671     288.6628      0.00000
   1672     288.6997      0.00000
   1673     288.7047      0.00000
   1674     288.7422      0.00000
   1675     288.7456      0.00000
   1676     288.7548      0.00000
   1677     288.7966      0.00000
   1678     288.7967      0.00000
   1679     288.7975      0.00000
   1680     288.8373      0.00000
   1681     288.8374      0.00000
   1682     288.8410      0.00000
   1683     288.8605      0.00000
   1684     288.8621      0.00000
   1685     288.8703      0.00000
   1686     288.8757      0.00000
   1687     288.8814      0.00000
   1688     288.8837      0.00000
   1689     288.8842      0.00000
   1690     288.8842      0.00000
   1691     288.8854      0.00000
   1692     288.8951      0.00000
   1693     288.8951      0.00000
   1694     288.8954      0.00000
   1695     288.9054      0.00000
   1696     288.9519      0.00000
   1697     289.0064      0.00000
   1698     289.0064      0.00000
   1699     289.0080      0.00000
   1700     289.0089      0.00000
   1701     289.0111      0.00000
   1702     289.0112      0.00000
   1703     289.0113      0.00000
   1704     289.0137      0.00000
   1705     289.0165      0.00000
   1706     289.0189      0.00000
   1707     289.0198      0.00000
   1708     289.0220      0.00000
   1709     289.0223      0.00000
   1710     289.0223      0.00000
   1711     289.0278      0.00000
   1712     289.0457      0.00000
   1713     289.0564      0.00000
   1714     289.0579      0.00000
   1715     289.0594      0.00000
   1716     289.0595      0.00000
   1717     289.0596      0.00000
   1718     289.0599      0.00000
   1719     289.1020      0.00000
   1720     289.1525      0.00000
   1721     289.2416      0.00000
   1722     289.2427      0.00000
   1723     289.2427      0.00000
   1724     289.2428      0.00000
   1725     289.2592      0.00000
   1726     289.2625      0.00000
   1727     289.2710      0.00000
   1728     289.2710      0.00000
   1729     289.2711      0.00000
   1730     289.2713      0.00000
   1731     289.2714      0.00000
   1732     289.2714      0.00000
   1733     289.2714      0.00000
[...]
   39                map_backward                          0.003405                    2   7
   40                  map_gather                            0.002806                  1   8
   41      fewald                                0.000304                              1   2
   42        rsp                                   0.000018                            1   3
   43        rcp                                   0.000005                            1   3
   44      elmin                                84.431290                              1   2
   45        potlok                                0.276307                            1   3
   46          fft3d_mpi                             0.110058                         13   4
   47            fftbrc_mpi                            0.103480                       13   5
   48              fftbas_plan_mpi                       0.103472                     13   6
   49                dfftw_execute                         0.078594                   39   7
   50                map_forward                           0.013273                   14   7
   51                  map_scatter                           0.009087                  7   8
   52                map_backward                          0.010728                   12   7
   53                  map_gather                            0.007474                  6   8
   54          ggaall_grid                           0.084243                          1   4
   55          pothar                                0.002778                          1   4
   56        potlok_metagga                        0.000001                            1   3
   57        vectorpot                             0.000001                            1   3
   58        setdij_                               0.000491                            1   3
   59        set_dd_magatom                        0.000000                            1   3
   60        set_dd_paw                            0.000976                            1   3
   61        eddiag                               84.144301                            1   3
   62          overl                                 0.001552                          1   4
   63          fftwav_mpi                            5.365883                       6235   4
   64            fftwav                                5.364291                     6235   5
   65              fft3d                                 5.062794                   6235   6
   66          hamilt_local                          6.045711                       6235   4
   67            vhamil                                0.992590                     6235   5
   68            kinhamil                              5.049804                     6235   5
   69              fftext_mpi                            5.024305                   6235   6
   70                fft3d_mpi                             4.989438                 6235   7
   71                  fft3d                                 4.987307               6235   8
   72          orth1                                 9.854396                        390   4
   73          shift_bands_between_low_high          0.000000                          1   4
   74          pdssyex_zheevx                       54.410311                          1   4
   75            FERMAT_RAZOR                          0.000001                        1   5
   76          lincom                                8.245882                          1   4
   77        densta                                0.000696                            1   3
   78      rotate_active_occupied_orbital        0.000000                              1   2
   79      force_and_stress                      3.046507                              1   2
   80        set_charge                            0.016300                            1   3
   81          soft_charge                           0.002630                          1   4
   82            fftwav_mpi                            0.000949                        1   5
   83              fftwav                                0.000949                      1   6
   84                fft3d                                 0.000873                    1   7
   85            pw_charge                             0.000147                        1   5
   86            fft_gq                                0.001289                        1   5
   87              fft3d_mpi                             0.001227                      1   6
   88                fftbrc_mpi                            0.000914                    1   7
   89                  fftbas_plan_mpi                       0.000914                  1   8
   90                    dfftw_execute                         0.000683                3   9
   91                    map_backward                          0.000178                2   9
   92                      map_gather                            0.000124              1  10
   93          depsum                                0.001454                          1   4
   94          augmentation_charge                   0.011557                          1   4
   95            fft3d_mpi                             0.008740                        1   5
   96              fftbrc_mpi                            0.008311                      1   6
   97                fftbas_plan_mpi                       0.008310                    1   7
   98                  dfftw_execute                         0.006443                  3   8
   99                  map_backward                          0.001806                  2   8
  100                    map_gather                            0.001234                1   9
  101        forloc                                0.009726                            1   3
  102        fornl                                 1.451479                            1   3
  103          phase                                 0.000000                          1   4
  104        fordep                                0.002681                            1   3
  105          setdij_                               0.002675                          6   4
  106        setdij_                               0.008751                           20   3
  107        set_dd_magatom                        0.000000                            1   3
  108        set_dd_paw                            0.000967                            1   3
  109        strkin                                0.114683                            1   3
  110        strelo                                0.018641                            1   3
  111        strenl                                1.346431                            1   3
  112          spher                                 0.010449                         19   4
  113          phase                                 0.000000                          9   4
  114          proj1                                 1.291945                      56115   4
  115            crexp_mul_wave                        0.244665                    56115   5
  116        chggra                                0.053826                            1   3
  117          fft3d_mpi                             0.027053                          3   4
  118            fftbrc_mpi                            0.025611                        3   5
  119              fftbas_plan_mpi                       0.025610                      3   6
  120                dfftw_execute                         0.019318                    9   7
  121                map_forward                           0.004348                    4   7
  122                  map_scatter                           0.003002                  2   8
  123                map_backward                          0.001733                    2   7
  124                  map_gather                            0.001197                  1   8
  125          pothar                                0.002778                          1   4
  126        forhar                                0.012526                            1   3
  127        brmix                                 0.008174                            1   3
  128          brpre                                 0.000120                          1   4
  129          setg0                                 0.004827                          2   4
  130          broyd                                 0.000070                          1   4
  131            brsav                                 0.000035                        5   5
  132            brget                                 0.000014                        3   5
  133      potlok                                0.232936                              1   2
  134        fft3d_mpi                             0.109769                           13   3
  135          fftbrc_mpi                            0.103204                         13   4
  136            fftbas_plan_mpi                       0.103197                       13   5
  137              dfftw_execute                         0.078185                     39   6
  138              map_forward                           0.013463                     14   6
  139                map_scatter                           0.009365                    7   7
  140              map_backward                          0.010683                     12   6
  141                map_gather                            0.007459                    6   7
  142        ggaall_grid                           0.049601                            1   3
  143        pothar                                0.002754                            1   3
  144      potlok_metagga                        0.000000                              1   2
  145      set_dd_magatom                        0.000000                              1   2
  146      set_dd_paw                            0.000964                              1   2
  147      fft3d_mpi                             0.020339                              2   2
  148        fftbrc_mpi                            0.019300                            2   3
  149          fftbas_plan_mpi                       0.019299                          2   4
  150            dfftw_execute                         0.014591                        6   5
  151            map_forward                           0.004465                        4   5
  152              map_scatter                           0.003049                      2   6
  153      densta                                0.001105                              1   2
 
 Flat profile
 ============
 
             routine name                   CPU           calls
 ---------------------------------------------------------------
 pdssyex_zheevx                         54.410310           1
 orth1                                  19.750429         780
 lincom                                 12.522275           2
 fft3d                                  10.052001       12472
 total_time                              5.154610           1
 choleski                                2.939164           1
 fornl                                   1.451479           1
 proj1                                   1.164169       62350
 vhamil                                  0.992590        6235
 fftwav                                  0.301641        6237
 crexp_mul_wave                          0.271846       62350
 eddiag                                  0.220566           1
 dfftw_execute                           0.205000         105
 potlok                                  0.150040           2
 ggaall_grid                             0.133844           2
 strkin                                  0.114683           1
 orthch                                  0.087874           1
 strenl                                  0.044037           1
 fftext_mpi                              0.034867        6235
 kinhamil                                0.025499        6235
 map_scatter                             0.024503          18
 chggra                                  0.023995           1
 map_gather                              0.020615          17
 fft3d_mpi                               0.019342        6270
 strelo                                  0.018641           1
 setdij_                                 0.013030          29
 forhar                                  0.012526           1
 spher                                   0.011148          20
 map_forward                             0.011046          36
 forloc                                  0.009726           1
 elmin                                   0.008517           1
 pothar                                  0.008310           3
 map_backward                            0.008291          34
 augmentation_charge                     0.006907           2
 setg0                                   0.004827           2
 hamilt_local                            0.003317        6235
 stufak                                  0.003169           1
 brmix                                   0.003157           1
 overl                                   0.003080           2
 set_dd_paw                              0.002907           3
 depsum                                  0.002874           2
 fftbas_plan_mpi                         0.002474          35
 force_and_stress                        0.002322           1
 densta                                  0.001801           2
 proj                                    0.001720           1
 fftwav_mpi                              0.001592        6237
 set_charge                              0.001323           2
 brgrid                                  0.000922           1
 soft_charge                             0.000901           2
 pw_charge                               0.000286           2
 fewald                                  0.000281           1
 fft_gq                                  0.000125           2
 brpre                                   0.000120           1
 phase                                   0.000036          12
 brsav                                   0.000035           5
 crpa_reader                             0.000022           1
 broyd                                   0.000021           1
 fftbrc_mpi                              0.000021          35
 rsp                                     0.000018           1
 brget                                   0.000014           3
 fordep                                  0.000006           1
 rcp                                     0.000005           1
 vectorpot                               0.000001           2
 potlok_metagga                          0.000001           2
 FERMAT_RAZOR                            0.000001           1
 shift_bands_between_low_high            0.000000           1
 redis_pw_over_bands                     0.000000           1
 proall                                  0.000000           1
 set_dd_magatom                          0.000000           3
 rotate_active_occupied_orbital          0.000000           1
 ---------------------------------------------------------------
  summed up times    110.26090288162231     
 
 Accumulative profile
 ====================
 
             routine name                   CPU           calls
 ---------------------------------------------------------------
 total_time                            110.260903           1
 elmin                                  84.431290           1
 eddiag                                 84.144301           1
 pdssyex_zheevx                         54.410311           1
 orth1                                  19.750429         780
 orthch                                 17.200993           1
 lincom                                 12.522275           2
 fft3d                                  10.052001       12472
 hamilt_local                            6.045711        6235
 fftwav_mpi                              5.367927        6237
 fftwav                                  5.366335        6237
 fft3d_mpi                               5.278599        6270
 kinhamil                                5.049804        6235
 fftext_mpi                              5.024305        6235
 force_and_stress                        3.046507           1
 choleski                                2.939164           1
 fornl                                   1.451479           1
 proj1                                   1.436015       62350
 strenl                                  1.346431           1
 vhamil                                  0.992590        6235
 potlok                                  0.509243           2
 fftbrc_mpi                              0.271950          35
 fftbas_plan_mpi                         0.271929          35
 crexp_mul_wave                          0.271846       62350
 dfftw_execute                           0.205000         105
 proall                                  0.145826           1
 proj                                    0.145790           1
 ggaall_grid                             0.133844           2
 strkin                                  0.114683           1
 chggra                                  0.053826           1
 set_charge                              0.036403           2
 map_forward                             0.035548          36
 map_backward                            0.028907          34
 augmentation_charge                     0.026027           2
 map_scatter                             0.024503          18
 map_gather                              0.020615          17
 strelo                                  0.018641           1
 setdij_                                 0.013030          29
 forhar                                  0.012526           1
 spher                                   0.011148          20
 forloc                                  0.009726           1
 pothar                                  0.008310           3
 brmix                                   0.008174           1
 soft_charge                             0.006179           2
 setg0                                   0.004827           2
 stufak                                  0.003169           1
 overl                                   0.003080           2
 fft_gq                                  0.002947           2
 set_dd_paw                              0.002907           3
 depsum                                  0.002874           2
 fordep                                  0.002681           1
 densta                                  0.001801           2
 brgrid                                  0.000922           1
 fewald                                  0.000304           1
 pw_charge                               0.000286           2
 brpre                                   0.000120           1
 broyd                                   0.000070           1
 phase                                   0.000036          12
 brsav                                   0.000035           5
 crpa_reader                             0.000022           1
 rsp                                     0.000018           1
 brget                                   0.000014           3
 rcp                                     0.000005           1
 vectorpot                               0.000001           2
 potlok_metagga                          0.000001           2
 FERMAT_RAZOR                            0.000001           1
 rotate_active_occupied_orbital          0.000000           1
 redis_pw_over_bands                     0.000000           1
 set_dd_magatom                          0.000000           3
 shift_bands_between_low_high            0.000000           1
 ---------------------------------------------------------------
 
Profiling took   0.011708  0.010920  0.001677  0.001640 seconds
Profiling took   0.014340 seconds
