 vasp.6.3.0 20Jan22 (build Dec  8 2022 17:40:58) gamma-only                      
 executed on             LinuxGNU date 2025.05.20  10:36:29
 running on    1 total cores
 distrk:  each k-point on    1 cores,    1 groups
 distr:  one band on NCORE=   1 cores,    1 groups


--------------------------------------------------------------------------------------------------------


 INCAR:
   ENCUT = 700
   SIGMA = 0.0001
   LHFCALC = .TRUE.
   AEXX = 1.0
   ISYM = -1
   ALGO = MP2
   NBANDS = 21
   NBANDSHIGH = 21
   LSFACTOR = .TRUE.
   ISYM = -1
   PREC = Accurate

 POTCAR:    PAW_PBE He_GW 23Feb2015               
 POTCAR:    PAW_PBE He_GW 23Feb2015               
   SHA256 =  3abac926d96e91498f3915cb010d0fbb15fe9ea31a649aacf98be39d0884cf70 He_GW/POTCAR          
   COPYR  = (c) Copyright 23Feb2015 Georg Kresse                                                    
   COPYR  = This file is part of the software VASP. Any use, copying, and all other rights are regul
   COPYR  = If you do not have a valid VASP license, you may not use, copy or distribute this file. 
   VRHFIN =He: 1s                                                                                   
   LEXCH  = PE                                                                                      
   EATOM  =    78.7251 eV,    5.7861 Ry                                                             
                                                                                                    
   TITEL  = PAW_PBE He_GW 23Feb2015                                                                 
   LULTRA =        F    use ultrasoft PP ?                                                          
   IUNSCR =        0    unscreen: 0-lin 1-nonlin 2-no                                               
   RPACOR =    0.000    partial core radius                                                         
   POMASS =    4.000; ZVAL   =    2.000    mass and valenz                                          
   RCORE  =    1.200    outmost cutoff radius                                                       
   RWIGS  =    1.200; RWIGS  =    0.635    wigner-seitz radius (au A)                               
   ENMAX  =  405.780; ENMIN  =  304.335 eV                                                          
   RCLOC  =    0.703    cutoff for local pot                                                        
   LCOR   =        T    correct aug charges                                                         
   LPAW   =        T    paw PP                                                                      
   EAUG   = 1514.192                                                                                
   RMAX   =    1.224    core radius for proj-oper                                                   
   RAUG   =    1.200    factor for augmentation sphere                                              
   RDEP   =    1.261    radius for radial grids                                                     
   RDEPT  =    1.051    core radius for aug-charge                                                  
                                                                                                    
   Atomic configuration                                                                             
    3 entries                                                                                       
     n  l   j            E        occ.                                                              
     1  0  0.50       -15.7639   2.0000                                                             
     2  1  0.50        -2.8912   0.0000                                                             
     3  2  1.50        -2.8912   0.0000                                                             
   Description                                                                                      
     l       E           TYP  RCUT    TYP  RCUT                                                     
     0    -15.7638891     23  1.200                                                                 
     0     27.2116520     23  1.200                                                                 
     1     -6.8029130     23  1.200                                                                 
     1     81.6349560     23  1.200                                                                 
     1    476.2039100     23  1.200                                                                 
     2     81.6349560     23  1.200                                                                 
     2    142.8611730     23  1.200                                                                 
  local pseudopotential read in
  kinetic energy density of atom read in
  atomic valenz-charges read in
  non local Contribution for L=           0  read in
    real space projection operators read in
  non local Contribution for L=           0  read in
    real space projection operators read in
  non local Contribution for L=           1  read in
    real space projection operators read in
  non local Contribution for L=           1  read in
    real space projection operators read in
  non local Contribution for L=           1  read in
    real space projection operators read in
  non local Contribution for L=           2  read in
    real space projection operators read in
  non local Contribution for L=           2  read in
    real space projection operators read in
    PAW grid and wavefunctions read in

   number of l-projection  operators is LMAX  =           7
   number of lm-projection operators is LMMAX =          21

  PAW_PBE He_GW 23Feb2015               :
 energy of atom  1       EATOM=  -78.7251
 kinetic energy error for atom=    0.0029 (will be added to EATOM!!)


 POSCAR: He
  positions in cartesian coordinates
  No initial velocities read in
 exchange correlation table for  LEXCH =        8
   RHO(1)=    0.500       N(1)  =     2000
   RHO(2)=  100.500       N(2)  =     4000



--------------------------------------------------------------------------------------------------------


 ion  position               nearest neighbor table
   1  0.000  0.000  0.000-


IMPORTANT INFORMATION: All symmetrisations will be switched off!
NOSYMM: (Re-)initialisation of all symmetry stuff for point group C_1.


----------------------------------------------------------------------------------------

                                     Primitive cell                                     

  volume of cell :     148.1845

  direct lattice vectors                    reciprocal lattice vectors
     5.291770000  0.000000000  0.000000000     0.188972688  0.000000000  0.000000000
     0.000000000  5.291770000  0.000000000     0.000000000  0.188972688  0.000000000
     0.000000000  0.000000000  5.291770000     0.000000000  0.000000000  0.188972688

  length of vectors
     5.291770000  5.291770000  5.291770000     0.188972688  0.188972688  0.188972688

  position of ions in fractional coordinates (direct lattice)
     0.000000000  0.000000000  0.000000000

  ion indices of the primitive-cell ions
   primitive index   ion index
                 1           1

----------------------------------------------------------------------------------------



 KPOINTS: Automatically generated mesh            

Automatic generation of k-mesh.
 Grid dimensions read from file:
 generate k-points for:    1    1    1

 Generating k-lattice:

  Cartesian coordinates                     Fractional coordinates (reciprocal lattice)
     0.188972688  0.000000000  0.000000000     1.000000000  0.000000000  0.000000000
     0.000000000  0.188972688  0.000000000     0.000000000  1.000000000  0.000000000
     0.000000000  0.000000000  0.188972688     0.000000000  0.000000000  1.000000000

  Length of vectors
     0.188972688  0.188972688  0.188972688

  Shift w.r.t. Gamma in fractional coordinates (k-lattice)
     0.000000000  0.000000000  0.000000000

 
 Subroutine IBZKPT returns following result:
 ===========================================
 
 Found      1 irreducible k-points:
 
 Following reciprocal coordinates:
            Coordinates               Weight
  0.000000  0.000000  0.000000      1.000000
 
 Following cartesian coordinates:
            Coordinates               Weight
  0.000000  0.000000  0.000000      1.000000
 
 WARNING: full set of k-points will be restricted to regular points only.

 
 Subroutine IBZKPT_HF returns following result:
 ==============================================
 
 Found      1 k-points in 1st BZ
 the following      1 k-points will be used (e.g. in the exchange kernel)
 Following reciprocal coordinates:   # in IRBZ
  0.000000  0.000000  0.000000    1.00000000   1 t-inv F


--------------------------------------------------------------------------------------------------------




 Dimension of arrays:
   k-points           NKPTS =      1   k-points in BZ     NKDIM =      1   number of bands    NBANDS=     21
   number of dos      NEDOS =    301   number of ions     NIONS =      1
   non local maximal  LDIM  =      7   non local SUM 2l+1 LMDIM =     21
   total plane-waves  NPLWV = 110592
   max r-space proj   IRMAX =      1   max aug-charges    IRDMAX=   5416
   dimension x,y,z NGX =    48 NGY =   48 NGZ =   48
   dimension x,y,z NGXF=    96 NGYF=   96 NGZF=   96
   support grid    NGXF=    96 NGYF=   96 NGZF=   96
   ions per type =               1
   lowest and highest band optimized NBANDSLOW=      -1 NBANDSHIGH=      21
   NGX,Y,Z   is equivalent  to a cutoff of  15.08, 15.08, 15.08 a.u.
   NGXF,Y,Z  is equivalent  to a cutoff of  30.16, 30.16, 30.16 a.u.

 SYSTEM =  unknown system                          
 POSCAR =  He                                      

 Startparameter for this run:
   NWRITE =      2    write-flag & timer
   PREC   = accura    normal or accurate (medium, high low for compatibility)
   ISTART =      1    job   : 0-new  1-cont  2-samecut
   ICHARG =      0    charge: 1-file 2-atom 10-const
   ISPIN  =      1    spin polarized calculation?
   LNONCOLLINEAR =      F non collinear calculations
   LSORBIT =      F    spin-orbit coupling
   INIWAV =      1    electr: 0-lowe 1-rand  2-diag
   LASPH  =      F    aspherical Exc in radial PAW
 Electronic Relaxation 1
   ENCUT  =  700.0 eV  51.45 Ry    7.17 a.u.  11.42 11.42 11.42*2*pi/ulx,y,z
   ENINI  =  700.0     initial cutoff
   ENAUG  = 1514.2 eV  augmentation charge cutoff
   NELM   =     60;   NELMIN=  2; NELMDL=  0     # of ELM steps 
   EDIFF  = 0.1E-03   stopping-criterion for ELM
   LREAL  =      F    real-space projection
   NLSPLINE    = F    spline interpolate recip. space projectors
   LCOMPAT=      F    compatible to vasp.4.4
   GGA_COMPAT  = T    GGA compatible to vasp.4.4-vasp.4.6
   LMAXPAW     = -100 max onsite density
   LMAXMIX     =    2 max onsite mixed and CHGCAR
   VOSKOWN=      0    Vosko Wilk Nusair interpolation
   ROPT   =    0.00000
 Ionic relaxation
   EDIFFG = 0.1E-02   stopping-criterion for IOM
   NSW    =      0    number of steps for IOM
   NBLOCK =      1;   KBLOCK =      1    inner block; outer block 
   IBRION =     -1    ionic relax: 0-MD 1-quasi-New 2-CG
   NFREE  =      0    steps in history (QN), initial steepest desc. (CG)
   ISIF   =      0    stress and relaxation
   IWAVPR =     10    prediction:  0-non 1-charg 2-wave 3-comb
   ISYM   =     -1    0-nonsym 1-usesym 2-fastsym
   LCORR  =      T    Harris-Foulkes like correction to forces

   POTIM  = 0.5000    time-step for ionic-motion
   TEIN   =    0.0    initial temperature
   TEBEG  =    0.0;   TEEND  =   0.0 temperature during run
   SMASS  =  -3.00    Nose mass-parameter (am)
   estimated Nose-frequenzy (Omega)   =  0.10E-29 period in steps = 0.13E+47 mass=  -0.640E-27a.u.
   SCALEE = 1.0000    scale energy and forces
   NPACO  =    256;   APACO  = 10.0  distance and # of slots for P.C.
   PSTRESS=    0.0 pullay stress

  Mass of Ions in am
   POMASS =   4.00
  Ionic Valenz
   ZVAL   =   2.00
  Atomic Wigner-Seitz radii
   RWIGS  =  -1.00
  virtual crystal weights 
   VCA    =   1.00
   NELECT =       2.0000    total number of electrons
   NUPDOWN=      -1.0000    fix difference up-down

 DOS related values:
   EMIN   =  10.00;   EMAX   =-10.00  energy-range for DOS
   EFERMI =   0.00
   ISMEAR =     1;   SIGMA  =   0.00  broadening in eV -4-tet -1-fermi 0-gaus

 Electronic relaxation 2 (details)
   IALGO  =     38    algorithm
   LDIAG  =      T    sub-space diagonalisation (order eigenvalues)
   LSUBROT=      F    optimize rotation matrix (better conditioning)
   TURBO    =      0    0=normal 1=particle mesh
   IRESTART =      0    0=no restart 2=restart with 2 vectors
   NREBOOT  =      0    no. of reboots
   NMIN     =      0    reboot dimension
   EREF     =   0.00    reference energy to select bands
   IMIX   =      1    mixing-type and parameters
     AMIX     =   0.40;   BMIX     =  1.00
     AMIX_MAG =   1.60;   BMIX_MAG =  1.00
     AMIN     =   0.10
     WC   =   100.;   INIMIX=   1;  MIXPRE=   1;  MAXMIX= -45

 Intra band minimization:
   WEIMIN = 0.0000     energy-eigenvalue tresh-hold
   EBREAK =  0.12E-05  absolut break condition
   DEPER  =   0.30     relativ break condition  

   TIME   =   0.40     timestep for ELM

  volume/ion in A,a.u.               =     148.18      1000.00
  Fermi-wavevector in a.u.,A,eV,Ry     =   0.389778  0.736573  2.067090  0.151927
  Thomas-Fermi vector in A             =   1.331259

 Write flags
   LWAVE        =      T    write WAVECAR
   LDOWNSAMPLE  =      F    k-point downsampling of WAVECAR
   LCHARG       =      T    write CHGCAR
   LVTOT        =      F    write LOCPOT, total local potential
   LVHAR        =      F    write LOCPOT, Hartree potential only
   LELF         =      F    write electronic localiz. function (ELF)
   LORBIT       =      0    0 simple, 1 ext, 2 COOP (PROOUT), +10 PAW based schemes


 Dipole corrections
   LMONO  =      F    monopole corrections only (constant potential shift)
   LDIPOL =      F    correct potential (dipole corrections)
   IDIPOL =      0    1-x, 2-y, 3-z, 4-all directions 
   EPSILON=  1.0000000 bulk dielectric constant

 Exchange correlation treatment:
   GGA     =    --    GGA type
   LEXCH   =     8    internal setting for exchange type
   LIBXC   =     F    Libxc                    
   VOSKOWN =     0    Vosko Wilk Nusair interpolation
   EXXOEP  =     0    0=HF, 1=EXX-LHF (local Hartree Fock) 2=EXX OEP
   LHFCALC =     T    Hartree Fock is set to
   LSYMGRAD=     F    symmetrize gradient (conserves proper symmetry)
   PRECFOCK=normal    Normal, Fast or Accurate (Low or Medium for compatibility)
   LRHFCALC=     F    long range Hartree Fock
   LRSCOR  =     F    long range correlation only (use DFT for short range part)
   LTHOMAS =     F    Thomas Fermi screening in HF
   LMODELHF=     F    short range full HF, long range fraction AEXX
   LFOCKACE=     T    use Adeptively-Compressed-Exchange operator
   ENCUT4O =  -1.0   cutoff for four orbital integrals eV
   LMAXFOCK=     4    L truncation for augmentation on plane wave grid
   LMAXFOCKAE=   4    L truncation for all-electron charge restoration on plane wave grid
   NMAXFOCKAE=   1    number of basis functions for all-electron charge restoration
   LFOCKAEDFT=     F  apply the AE augmentation even for DFT
   NKREDX  =     1    reduce k-point grid by
   NKREDY  =     1    reduce k-point grid by
   NKREDZ  =     1    reduce k-point grid by
   SHIFTRED=     F    shift reduced grid of Gamma
   HFKIDENT=     F    idential grid for each k-point
   ODDONLY =     F    use only odd q-grid points
   EVENONLY=     F    use only even q-grid points
   HFALPHA =   -1.0000 decay constant for conv. correction
   MCALPHA =    0.0000 extent of test-charge in conv. correction in multipole expansion
   AEXX    =    1.0000 exact exchange contribution
   HFSCREEN=    0.0000 screening length (either q_TF or 0.3 A-1)
   HFSCREENC=   0.0000 screening length for correlation (either q_TF or 0.3 A-1)
   HFRCUT  =    0.0000 spherical cutoff for potential kernel
   HFRCUTSOFT=    0.0000 smooth spherical cutoff for potential kernel
   ERFCRAY_SCREEN=    0.0000 screening factor for erfc+rayleigh like screening for potential kernel
   RAYLEXP=    0.0000  rayleigh exponent in erfc+rayleigh like screening
   ALDAX   =    0.0000 LDA exchange part
   AGGAX   =    0.0000 GGA exchange part
   ALDAC   =    0.0000 LDA correlation
   AGGAC   =    0.0000 GGA correlation
   ENCUTFOCK=  -1.0 apply spherical cutoff to Coloumb kernel
   NBANDSGWLOW=     1    first orbital included in HF term
   NBLOCK_FOCK=    64    blocking factor in FOCK_ACC

 Linear response parameters
   LEPSILON=     F    determine dielectric tensor
   LRPA    =     F    only Hartree local field effects (RPA)
   LNABLA  =     F    use nabla operator in PAW spheres
   LVEL    =     F    velocity operator in full k-point grid
   CSHIFT  =0.1000    complex shift for real part using Kramers Kronig
   OMEGAMAX=  -1.0    maximum frequency
   DEG_THRESHOLD= 0.2000000E-02 threshold for treating states as degnerate
   RTIME   =   -0.100 relaxation time in fs
  (WPLASMAI=    0.000 imaginary part of plasma frequency in eV, 0.658/RTIME)
   DFIELD  = 0.0000000 0.0000000 0.0000000 field for delta impulse in time

  Optional k-point grid parameters
   LKPOINTS_OPT  =     F    use optional k-point grid
   KPOINTS_OPT_MODE=     1    mode for optional k-point grid

 Orbital magnetization related:
   ORBITALMAG=     F  switch on orbital magnetization
   LCHIMAG   =     F  perturbation theory with respect to B field
   DQ        =  0.001000  dq finite difference perturbation B field
   LLRAUG    =     F  two centre corrections for induced B field

 Response functions by sum over occupied states:
   ALGO                = MP2      selected many-body perturbation algorithm
   LFINITE_TEMPERATURE =     F    use finite temperature formalism
   LFXC                =     F    include DFT xc kernel in TD-HF and W
   LADDER              =     F    particle hole ladder diagrams for BSE/TD-HF and W (Nano-quanta)
   LRPAFORCE           =     F    calculate RPA forces
   LHARTREE            =     T    include Hartree terms (bubbles-RPA) in BSE/TD-HF
   IBSE                =     0    BSE modus: 0 exact, 1 time-evolution (store matrix), 10 time-evolution (implicit)
   KPOINT              =    -1   0   0   0    k-point index at which BSE equation is solved (and G at which response is eval.)
   LTRIPLET            =     F    triplet instead of singlet excitation (BSE only)
   LRSRPA              =     F    range separated RPA (total - short) in ACFDT
   LTCTC               =     F    use test-charge test-charge for self-energy (with ALGO=QPBSE)
   LTCTE               =     F    use test-charge test-electron dielectric function
   LTETE               =     F    use test-electron test-electron dielectric function
   LFXCEPS             =     F    determine f_xc=epsilon-1/Xi Sharma and Gross kernel
   LFXHEG              =     F    model exchange using f_x(G,k_F) from free electron gas
   NATURALO            =     2    0 natural orbitals, 1 only virtual, 2 only occupied-virtual rotation
   LHOLEGF             =     F    use holes in self-consistent GW 
   L2ORDER             =     F    2nd order terms only
   LDMP1               =     F    first order term in ACFDT routine is calculated
   LMP2LT              =     F    use LT MP2
   LSMP2LT             =     F    use stochastic LT MP2
   LGWLF               =     F    use W potentials for exchange like diagrams
   ENCUTGW             = 466.7    cutoff for response function in eV
   ENCUTGWSOFT         = 373.3    soft cutoff for Coulomb kernel in GW response function in eV
   ENCUTLF             =  -1.0    cutoff for local field effects
   LESF_SPLINES        =     F    tricubic splines for electronic structure factor S(q+G)
   LMAXMP2             =    -1    maximum L for one center terms
   SCISSOR             =   0.0    scissor correction
   NOMEGA              =   100    number of frequencies
   NOMEGAR             =   100    number of frequencies along real axis
   NBANDSGW            =    -1    number of bands for which selfenergy shift is calculated
   NBANDSGWLOW         =     1    lowest band included in GW (to exclude core correlation)
   NBANDSO             =    -1    number of bands for electron-hole treatment (occupied)
   NBANDSV             =    -1    number of bands for electron-hole treatment (virtual)
   NELM                =     1    number of iterations in solving QP/BSE equation
   NELMHF              =     1    number of iterations in the inner HF iteration
   DIM                 =     3    dimensionality of system (0=0D molecules, 3=3D)
   IEPSILON            =     4    cartesion direction for which dielectric function is calculated (4=all)
   ANTIRES             =     0    antiresonant part (0) no TDA (1) w=0 exact (2) accurate
   OMEGAMAX            = -30.0    maximum frequency
   OMEGAMIN            = -30.0    minimum frequency
   OMEGATL             =-200.0    maximum frequency of tail
   OMEGAGRID           =     0    grid type (0 default)
   CSHIFT              =  -0.1    complex shift used in evaluation of response functions
   LSELFENERGY         =     F    calculate selfenergy instead of QP shifts
   LSPECTRAL           =     T    use spectral functions                   
   LSPECTRALGW         =     F    use spectral functions to calculate int dz G(w-z) W(z) (more accurate)
   LSINGLES            =     F    calculate the singles contribution to the correlation energy
   LFERMIGW            =     F    update Fermi-energy in the Greens function

   ODDONLYGW           =     F    avoid all even points for polarizability 
   EVENONLYGW          =     F    avoid all odd  points for polarizability 
   NKREDLFX            =     1    NKREDLFY  =   1   NKREDLFZ  =   1

   TELESCOPE           =     0    use telescope k-point sampling
   NTAUPAR             =    -1    number of TAU groups used in imaginary time calculation
   NOMEGAPAR           =    -1    number of OMEGA groups used in imaginary frequency calculation
   DAMP_NEWTON         =0.8000    damping for Newton step for position update when RPA forces are used



--------------------------------------------------------------------------------------------------------


 Static calculation
 charge density and potential will be updated during run
 non-spin polarized calculation
 Variant of blocked Davidson
 Davidson routine will perform the subspace rotation
 perform sub-space diagonalisation
    after iterative eigenvector-optimisation
 Kerker-like  mixing scheme
 using additional bands           20
 reciprocal scheme for non local part
 calculate Harris-corrections to forces   (improved forces if not selfconsistent)
 use gradient corrections 
 use of overlap-Matrix (Vanderbilt PP)
 Methfessel and Paxton  Order N= 1 SIGMA  =   0.00


--------------------------------------------------------------------------------------------------------


  energy-cutoff  :      700.00
  volume of cell :      148.18
      direct lattice vectors                 reciprocal lattice vectors
     5.291770000  0.000000000  0.000000000     0.188972688  0.000000000  0.000000000
     0.000000000  5.291770000  0.000000000     0.000000000  0.188972688  0.000000000
     0.000000000  0.000000000  5.291770000     0.000000000  0.000000000  0.188972688

  length of vectors
     5.291770000  5.291770000  5.291770000     0.188972688  0.188972688  0.188972688



 old parameters found on file WAVECAR:
  energy-cutoff  :      700.00
  volume of cell :      148.18
      direct lattice vectors                 reciprocal lattice vectors
     5.291770000  0.000000000  0.000000000     0.188972688  0.000000000  0.000000000
     0.000000000  5.291770000  0.000000000     0.000000000  0.188972688  0.000000000
     0.000000000  0.000000000  5.291770000     0.000000000  0.000000000  0.188972688

  length of vectors


 k-points in units of 2pi/SCALE and weight: Automatically generated mesh            
   0.00000000  0.00000000  0.00000000       1.000

 k-points in reciprocal lattice and weights: Automatically generated mesh            
   0.00000000  0.00000000  0.00000000       1.000

 position of ions in fractional coordinates (direct lattice) 
   0.00000000  0.00000000  0.00000000

 position of ions in cartesian coordinates  (Angst):
   0.00000000  0.00000000  0.00000000



--------------------------------------------------------------------------------------------------------


 use serial FFT for orbitals x direction half grid
 k-point   1 :   0.0000 0.0000 0.0000  plane waves:    3118

 maximum and minimum number of plane-waves per node :      3118     3118

 maximum number of plane-waves:      3118
 maximum index in each direction: 
   IXMAX=   11   IYMAX=   11   IZMAX=   11
   IXMIN=    0   IYMIN=  -11   IZMIN=  -11


 serial   3D FFT for wavefunctions
 parallel 3D FFT for charge:
    minimum data exchange during FFTs selected (reduces bandwidth)


 FFT grid for exact exchange (Hartree Fock) 
  NGX = 36; NGY = 36; NGZ = 36

 use serial FFT for orbitals x direction half grid

 Radii for the augmentation spheres in the non-local exchange
 for species   1 augmentation radius   0.587 (default was   0.587)
 error exchange integrals (PW-AE in eV) (mean, max) 0.532 6.776 density error[0,qmax] 0.0011
 Maximum index for augmentation-charges in exchange          251
  SETUP_FOCK is finished

 total amount of memory used by VASP MPI-rank0   110173. kBytes
=======================================================================

   base      :      30000. kBytes
   nonl-proj :        573. kBytes
   fftplans  :      30736. kBytes
   grid      :      47517. kBytes
   one-center:         10. kBytes
   HF        :        176. kBytes
   nonlr-proj:        110. kBytes
   wavefun   :       1051. kBytes

     INWAV:  cpu time      0.0009: real time      0.0009
 charge density for first step will be calculated from the start-wavefunctions


--------------------------------------------------------------------------------------------------------


 Maximum index for augmentation-charges         5041 (set IRDMAX)


--------------------------------------------------------------------------------------------------------


 initial charge from wavefunction
    FEWALD:  cpu time      0.0000: real time      0.0000
 Basis sets for responsefunctions:
 =================================
 use serial FFT for orbitals x direction half grid
 k-point   1 :   0.0000 0.0000 0.0000  plane waves:    1704

 maximum and minimum number of plane-waves per node :      1704     1704

 maximum number of plane-waves:      1704
 maximum index in each direction: 
   IXMAX=    9   IYMAX=    9   IZMAX=    9
   IXMIN=    0   IYMIN=   -9   IZMIN=   -9

       MP2:  cpu time      0.0017: real time      0.0017
      LOOP:  cpu time      0.0240: real time      0.0240

 Moeller Plesset 2 correlation:
 ================================
    Fock exchange energy:         -27.75828524
   Hartree contr. to MP2:          -1.64832742
  Exchange contr. to MP2:           0.82416371
  MP2 correlation energy:          -0.82416371


  
  -------------------------------------------------------------------------
      ENCUTGW  ENCUTGWSOFT      singlet MP2    triplet MP2       total MP2
  -------------------------------------------------------------------------
      331.651      265.321     -0.78396118     -0.00000000     -0.78396118
      348.234      278.587     -0.79136337     -0.00000000     -0.79136337
      365.646      292.516     -0.79779151     -0.00000000     -0.79779151
      383.928      307.142     -0.80411809     -0.00000000     -0.80411809
      403.124      322.499     -0.81005270     -0.00000000     -0.81005270
      423.280      338.624     -0.81540796     -0.00000000     -0.81540796
      444.444      355.556     -0.82012214     -0.00000000     -0.82012214
      466.667      373.333     -0.82416371     -0.00000000     -0.82416371
      linear regression
      converged values         -0.88513599     -0.00000000     -0.88513599
