    2    2    1    1
  0.2032700E+03  0.7408002E-09  0.7408002E-09  0.7408002E-09  0.5000000E-15
  1.000000000000000E-004
  CAR 
 unknown system                          
      2      1     31
