       N       E                     dE             d eps       ncg     rms          rms(c)
DIA:   1    -0.755478433532E+01   -0.75548E+01    0.00000E+00     0   0.000E+00
   1 F= -.75547843E+01 E0= -.75547843E+01  d E =0.000000E+00
