 vasp.6.3.0 20Jan22 (build Mar 06 2023 08:06:32) gamma-only                     
  
 executed on             LinuxIFC date 2025.05.22  11:41:08
 running on   48 total cores
 distrk:  each k-point on   48 cores,    1 groups
 distr:  one band on NCORE=   1 cores,   48 groups


--------------------------------------------------------------------------------------------------------


 INCAR:
   ENCUT = 400
   SIGMA = 0.001
   EDIFF = 1E-6
   LHFCALC = .TRUE.
   AEXX = 1.0
   ISYM = -1
   ALGO = sub
   NELM = 1
   NBANDS = 7249
   ISYM = -1
   PREC = Accurate

 POTCAR:    PAW_PBE Li_GW 23Jun2021               
 POTCAR:    PAW_PBE H_GW 21Apr2008                
 -----------------------------------------------------------------------------
|                                                                             |
|           W    W    AA    RRRRR   N    N  II  N    N   GGGG   !!!           |
|           W    W   A  A   R    R  NN   N  II  NN   N  G    G  !!!           |
|           W    W  A    A  R    R  N N  N  II  N N  N  G       !!!           |
|           W WW W  AAAAAA  RRRRR   N  N N  II  N  N N  G  GGG   !            |
|           WW  WW  A    A  R   R   N   NN  II  N   NN  G    G                |
|           W    W  A    A  R    R  N    N  II  N    N   GGGG   !!!           |
|                                                                             |
|     For optimal performance we recommend to set                             |
|       NCORE = 2 up to number-of-cores-per-socket                            |
|     NCORE specifies how many cores store one orbital (NPAR=cpu/NCORE).      |
|     This setting can greatly improve the performance of VASP for DFT.       |
|     The default, NCORE=1 might be grossly inefficient on modern             |
|     multi-core architectures or massively parallel machines. Do your        |
|     own testing! More info at https://www.vasp.at/wiki/index.php/NCORE      |
|     Unfortunately you need to use the default for GW and RPA                |
|     calculations (for HF NCORE is supported but not extensively tested      |
|     yet).                                                                   |
|                                                                             |
 -----------------------------------------------------------------------------

 POTCAR:    PAW_PBE Li_GW 23Jun2021               
   SHA256 =  8825fb35c7e4969bc2ee643901f25156348bca79849b21eacd5f3f060d4d23e8 Li_GW/POTCAR          
   COPYR  = (c) Copyright 23Jun2021 Georg Kresse                                                    
   COPYR  = This file is part of the software VASP. Any use, copying, and all other rights are regul
   COPYR  = If you do not have a valid VASP license, you may not use, copy or distribute this file. 
   VRHFIN =Li: s1p0                                                                                 
   LEXCH  = PE                                                                                      
   EATOM  =     5.3001 eV,    0.3895 Ry                                                             
                                                                                                    
   TITEL  = PAW_PBE Li_GW 23Jun2021                                                                 
   LULTRA =        F    use ultrasoft PP ?                                                          
   IUNSCR =        1    unscreen: 0-lin 1-nonlin 2-no                                               
   RPACOR =    1.500    partial core radius                                                         
   POMASS =    7.010; ZVAL   =    1.000    mass and valenz                                          
   RCORE  =    2.100    outmost cutoff radius                                                       
   RWIGS  =    2.600; RWIGS  =    1.376    wigner-seitz radius (au A)                               
   ENMAX  =  112.104; ENMIN  =   84.078 eV                                                          
   RCLOC  =    2.012    cutoff for local pot                                                        
   LCOR   =        T    correct aug charges                                                         
   LPAW   =        T    paw PP                                                                      
   EAUG   =  483.286                                                                                
   DEXC   =   -0.000                                                                                
   RMAX   =    2.149    core radius for proj-oper                                                   
   RAUG   =    1.300    factor for augmentation sphere                                              
   RDEP   =    2.232    radius for radial grids                                                     
   RDEPT  =    1.854    core radius for aug-charge                                                  
                                                                                                    
   Atomic configuration                                                                             
    4 entries                                                                                       
     n  l   j            E        occ.                                                              
     1  0  0.50       -51.8549   2.0000                                                             
     2  0  0.50        -2.8742   1.0000                                                             
     2  1  0.50        -2.8708   0.0000                                                             
     3  2  1.50        -1.3606   0.0000                                                             
   Description                                                                                      
     l       E           TYP  RCUT    TYP  RCUT                                                     
     0     -2.8742051     23  2.100                                                                 
     0     54.4233040     23  2.100                                                                 
     1     -2.8708293     23  2.050                                                                 
     1     54.4233040     23  2.050                                                                 
     2     -1.3605826     23  2.050                                                                 
  local pseudopotential read in
  partial core-charges read in
  partial kinetic energy density read in
  kinetic energy density of atom read in
  atomic valenz-charges read in
  non local Contribution for L=           0  read in
    real space projection operators read in
  non local Contribution for L=           0  read in
    real space projection operators read in
  non local Contribution for L=           1  read in
    real space projection operators read in
  non local Contribution for L=           1  read in
    real space projection operators read in
  non local Contribution for L=           2  read in
    real space projection operators read in
    PAW grid and wavefunctions read in
 
   number of l-projection  operators is LMAX  =           5
   number of lm-projection operators is LMMAX =          13
 
 POTCAR:    PAW_PBE H_GW 21Apr2008                
   SHA256 =  cecc88617a3d1ece9865646f5d462fc0f44fd1f68d6f2eb08f18a2e421902afb H_GW/POTCAR           
   COPYR  = (c) Copyright 21Apr2008 Georg Kresse                                                    
   COPYR  = This file is part of the software VASP. Any use, copying, and all other rights are regul
   COPYR  = If you do not have a valid VASP license, you may not use, copy or distribute this file. 
   VRHFIN =H: ultrasoft test                                                                        
   LEXCH  = PE                                                                                      
   EATOM  =    12.4884 eV,    0.9179 Ry                                                             
                                                                                                    
   TITEL  = PAW_PBE H_GW 21Apr2008                                                                  
   LULTRA =        F    use ultrasoft PP ?                                                          
   IUNSCR =        0    unscreen: 0-lin 1-nonlin 2-no                                               
   RPACOR =    0.000    partial core radius                                                         
   POMASS =    1.000; ZVAL   =    1.000    mass and valenz                                          
   RCORE  =    1.100    outmost cutoff radius                                                       
   RWIGS  =    1.100; RWIGS  =    0.582    wigner-seitz radius (au A)                               
   ENMAX  =  300.000; ENMIN  =  250.000 eV                                                          
   RCLOC  =    0.701    cutoff for local pot                                                        
   LCOR   =        T    correct aug charges                                                         
   LPAW   =        T    paw PP                                                                      
   EAUG   =  500.000                                                                                
   RMAX   =    1.123    core radius for proj-oper                                                   
   RAUG   =    1.200    factor for augmentation sphere                                              
   RDEP   =    1.112    radius for radial grids                                                     
   RDEPT  =    1.100    core radius for aug-charge                                                  
                                                                                                    
   Atomic configuration                                                                             
    3 entries                                                                                       
     n  l   j            E        occ.                                                              
     1  0  0.50        -6.4927   1.0000                                                             
     2  1  0.50        -3.4015   0.0000                                                             
     3  2  1.50        13.6058   0.0000                                                             
   Description                                                                                      
     l       E           TYP  RCUT    TYP  RCUT                                                     
     0     -6.4927495     23  0.950                                                                 
     0      6.8029130     23  0.950                                                                 
     1     -4.0817478     23  1.100                                                                 
     1    108.8466080     23  1.100                                                                 
     2     81.6349560     23  1.100                                                                 
  local pseudopotential read in
  kinetic energy density of atom read in
  atomic valenz-charges read in
  non local Contribution for L=           0  read in
    real space projection operators read in
  non local Contribution for L=           0  read in
    real space projection operators read in
  non local Contribution for L=           1  read in
    real space projection operators read in
  non local Contribution for L=           1  read in
    real space projection operators read in
  non local Contribution for L=           2  read in
    real space projection operators read in
    PAW grid and wavefunctions read in
 
   number of l-projection  operators is LMAX  =           5
   number of lm-projection operators is LMMAX =          13
 
  PAW_PBE Li_GW 23Jun2021               :
 energy of atom  1       EATOM=   -5.3001
 kinetic energy error for atom=    0.0000 (will be added to EATOM!!)
  PAW_PBE H_GW 21Apr2008                :
 energy of atom  2       EATOM=  -12.4884
 kinetic energy error for atom=    0.0317 (will be added to EATOM!!)
 
 
 POSCAR: LiH
  positions in cartesian coordinates
  No initial velocities read in
 exchange correlation table for  LEXCH =        8
   RHO(1)=    0.500       N(1)  =     2000
   RHO(2)=  100.500       N(2)  =     4000
 


--------------------------------------------------------------------------------------------------------


 ion  position               nearest neighbor table
   1  0.000  0.000  0.000-   2 1.62
   2  0.000  0.000  0.219-   1 1.62
 

IMPORTANT INFORMATION: All symmetrisations will be switched off!
NOSYMM: (Re-)initialisation of all symmetry stuff for point group C_1.


----------------------------------------------------------------------------------------

                                     Primitive cell                                     

  volume of cell :     406.5400

  direct lattice vectors                    reciprocal lattice vectors
     7.408002056  0.000000000  0.000000000     0.134989163  0.000000000  0.000000000
     0.000000000  7.408002056  0.000000000     0.000000000  0.134989163  0.000000000
     0.000000000  0.000000000  7.408002056     0.000000000  0.000000000  0.134989163

  length of vectors
     7.408002056  7.408002056  7.408002056     0.134989163  0.134989163  0.134989163

  position of ions in fractional coordinates (direct lattice)
     0.000000000  0.000000000  0.000000000
     0.000000000  0.000000000  0.218825931

  ion indices of the primitive-cell ions
   primitive index   ion index
                 1           1
                 2           2

----------------------------------------------------------------------------------------

 
 
 KPOINTS: Automatically generated mesh            

Automatic generation of k-mesh.
 Grid dimensions read from file:
 generate k-points for:    1    1    1

 Generating k-lattice:

  Cartesian coordinates                     Fractional coordinates (reciprocal lattice)
     0.134989163  0.000000000  0.000000000     1.000000000  0.000000000  0.000000000
     0.000000000  0.134989163  0.000000000     0.000000000  1.000000000  0.000000000
     0.000000000  0.000000000  0.134989163     0.000000000  0.000000000  1.000000000

  Length of vectors
     0.134989163  0.134989163  0.134989163

  Shift w.r.t. Gamma in fractional coordinates (k-lattice)
     0.000000000  0.000000000  0.000000000

 
 Subroutine IBZKPT returns following result:
 ===========================================
 
 Found      1 irreducible k-points:
 
 Following reciprocal coordinates:
            Coordinates               Weight
  0.000000  0.000000  0.000000      1.000000
 
 Following cartesian coordinates:
            Coordinates               Weight
  0.000000  0.000000  0.000000      1.000000
 
 WARNING: full set of k-points will be restricted to regular points only.

 
 Subroutine IBZKPT_HF returns following result:
 ==============================================
 
 Found      1 k-points in 1st BZ
 the following      1 k-points will be used (e.g. in the exchange kernel)
 Following reciprocal coordinates:   # in IRBZ
  0.000000  0.000000  0.000000    1.00000000   1 t-inv F
 -----------------------------------------------------------------------------
|                                                                             |
|           W    W    AA    RRRRR   N    N  II  N    N   GGGG   !!!           |
|           W    W   A  A   R    R  NN   N  II  NN   N  G    G  !!!           |
|           W    W  A    A  R    R  N N  N  II  N N  N  G       !!!           |
|           W WW W  AAAAAA  RRRRR   N  N N  II  N  N N  G  GGG   !            |
|           WW  WW  A    A  R   R   N   NN  II  N   NN  G    G                |
|           W    W  A    A  R    R  N    N  II  N    N   GGGG   !!!           |
|                                                                             |
|     The number of bands has been changed from the values supplied in        |
|     the INCAR file. This is a result of running the parallel version.       |
|     The orbitals not found in the WAVECAR file will be initialized with     |
|     random numbers, which is usually adequate. For correlated               |
|     calculations, however, you should redo the groundstate calculation.     |
|     I found NBANDS = 7249. Now, NBANDS = 7296.                              |
|                                                                             |
 -----------------------------------------------------------------------------



--------------------------------------------------------------------------------------------------------




 Dimension of arrays:
   k-points           NKPTS =      1   k-points in BZ     NKDIM =      1   number of bands    NBANDS=   7296
   number of dos      NEDOS =    301   number of ions     NIONS =      2
   non local maximal  LDIM  =      5   non local SUM 2l+1 LMDIM =     13
   total plane-waves  NPLWV = 110592
   max r-space proj   IRMAX =      1   max aug-charges    IRDMAX=  10745
   dimension x,y,z NGX =    48 NGY =   48 NGZ =   48
   dimension x,y,z NGXF=    96 NGYF=   96 NGZF=   96
   support grid    NGXF=    96 NGYF=   96 NGZF=   96
   ions per type =               1   1
   NGX,Y,Z   is equivalent  to a cutoff of  10.77, 10.77, 10.77 a.u.
   NGXF,Y,Z  is equivalent  to a cutoff of  21.54, 21.54, 21.54 a.u.

 SYSTEM =  unknown system                          
 POSCAR =  LiH                                     

 Startparameter for this run:
   NWRITE =      2    write-flag & timer
   PREC   = accura    normal or accurate (medium, high low for compatibility)
   ISTART =      1    job   : 0-new  1-cont  2-samecut
   ICHARG =      0    charge: 1-file 2-atom 10-const
   ISPIN  =      1    spin polarized calculation?
   LNONCOLLINEAR =      F non collinear calculations
   LSORBIT =      F    spin-orbit coupling
   INIWAV =      1    electr: 0-lowe 1-rand  2-diag
   LASPH  =      F    aspherical Exc in radial PAW
 Electronic Relaxation 1
   ENCUT  =  400.0 eV  29.40 Ry    5.42 a.u.  12.08 12.08 12.08*2*pi/ulx,y,z
   ENINI  =  400.0     initial cutoff
   ENAUG  =  500.0 eV  augmentation charge cutoff
   NELM   =      1;   NELMIN=  2; NELMDL=  0     # of ELM steps 
   EDIFF  = 0.1E-05   stopping-criterion for ELM
   LREAL  =      F    real-space projection
   NLSPLINE    = F    spline interpolate recip. space projectors
   LCOMPAT=      F    compatible to vasp.4.4
   GGA_COMPAT  = T    GGA compatible to vasp.4.4-vasp.4.6
   LMAXPAW     = -100 max onsite density
   LMAXMIX     =    2 max onsite mixed and CHGCAR
   VOSKOWN=      0    Vosko Wilk Nusair interpolation
   ROPT   =    0.00000   0.00000
 Ionic relaxation
   EDIFFG = 0.1E-04   stopping-criterion for IOM
   NSW    =      0    number of steps for IOM
   NBLOCK =      1;   KBLOCK =      1    inner block; outer block 
   IBRION =     -1    ionic relax: 0-MD 1-quasi-New 2-CG
   NFREE  =      0    steps in history (QN), initial steepest desc. (CG)
   ISIF   =      0    stress and relaxation
   IWAVPR =     10    prediction:  0-non 1-charg 2-wave 3-comb
   ISYM   =     -1    0-nonsym 1-usesym 2-fastsym
   LCORR  =      T    Harris-Foulkes like correction to forces

   POTIM  = 0.5000    time-step for ionic-motion
   TEIN   =    0.0    initial temperature
   TEBEG  =    0.0;   TEEND  =   0.0 temperature during run
   SMASS  =  -3.00    Nose mass-parameter (am)
   estimated Nose-frequenzy (Omega)   =  0.10E-29 period in steps = 0.13E+47 mass=  -0.125E-26a.u.
   SCALEE = 1.0000    scale energy and forces
   NPACO  =    256;   APACO  = 10.0  distance and # of slots for P.C.
   PSTRESS=    0.0 pullay stress

  Mass of Ions in am
   POMASS =   7.01  1.00
  Ionic Valenz
   ZVAL   =   1.00  1.00
  Atomic Wigner-Seitz radii
   RWIGS  =  -1.00 -1.00
  virtual crystal weights 
   VCA    =   1.00  1.00
   NELECT =       2.0000    total number of electrons
   NUPDOWN=      -1.0000    fix difference up-down

 DOS related values:
   EMIN   =  10.00;   EMAX   =-10.00  energy-range for DOS
   EFERMI =   0.00
   ISMEAR =     1;   SIGMA  =   0.00  broadening in eV -4-tet -1-fermi 0-gaus

 Electronic relaxation 2 (details)
   IALGO  =      4    algorithm
   LDIAG  =      T    sub-space diagonalisation (order eigenvalues)
   LSUBROT=      F    optimize rotation matrix (better conditioning)
   TURBO    =      0    0=normal 1=particle mesh
   IRESTART =      0    0=no restart 2=restart with 2 vectors
   NREBOOT  =      0    no. of reboots
   NMIN     =      0    reboot dimension
   EREF     =   0.00    reference energy to select bands
   IMIX   =      1    mixing-type and parameters
     AMIX     =   0.40;   BMIX     =  1.00
     AMIX_MAG =   1.60;   BMIX_MAG =  1.00
     AMIN     =   0.10
     WC   =   100.;   INIMIX=   1;  MIXPRE=   1;  MAXMIX= -45

 Intra band minimization:
   WEIMIN = 0.0000     energy-eigenvalue tresh-hold
   EBREAK =  0.34E-10  absolut break condition
   DEPER  =   0.30     relativ break condition  

   TIME   =   0.40     timestep for ELM

  volume/ion in A,a.u.               =     203.27      1371.73
  Fermi-wavevector in a.u.,A,eV,Ry     =   0.278431  0.526158  1.054773  0.077524
  Thomas-Fermi vector in A             =   1.125155
 
 Write flags
   LWAVE        =      T    write WAVECAR
   LDOWNSAMPLE  =      F    k-point downsampling of WAVECAR
   LCHARG       =      T    write CHGCAR
   LVTOT        =      F    write LOCPOT, total local potential
   LVHAR        =      F    write LOCPOT, Hartree potential only
   LELF         =      F    write electronic localiz. function (ELF)
   LORBIT       =      0    0 simple, 1 ext, 2 COOP (PROOUT), +10 PAW based schemes


 Dipole corrections
   LMONO  =      F    monopole corrections only (constant potential shift)
   LDIPOL =      F    correct potential (dipole corrections)
   IDIPOL =      0    1-x, 2-y, 3-z, 4-all directions 
   EPSILON=  1.0000000 bulk dielectric constant

 Exchange correlation treatment:
   GGA     =    --    GGA type
   LEXCH   =     8    internal setting for exchange type
   LIBXC   =     F    Libxc                    
   VOSKOWN =     0    Vosko Wilk Nusair interpolation
   EXXOEP  =     0    0=HF, 1=EXX-LHF (local Hartree Fock) 2=EXX OEP
   LHFCALC =     T    Hartree Fock is set to
   LSYMGRAD=     F    symmetrize gradient (conserves proper symmetry)
   PRECFOCK=normal    Normal, Fast or Accurate (Low or Medium for compatibility)
   LRHFCALC=     F    long range Hartree Fock
   LRSCOR  =     F    long range correlation only (use DFT for short range part)
   LTHOMAS =     F    Thomas Fermi screening in HF
   LMODELHF=     F    short range full HF, long range fraction AEXX
   LFOCKACE=     T    use Adeptively-Compressed-Exchange operator
   ENCUT4O =  -1.0   cutoff for four orbital integrals eV
   LMAXFOCK=     4    L truncation for augmentation on plane wave grid
   LMAXFOCKAE=  -1    L truncation for all-electron charge restoration on plane wave grid
   NMAXFOCKAE=   1    number of basis functions for all-electron charge restoration
   LFOCKAEDFT=     F  apply the AE augmentation even for DFT
   NKREDX  =     1    reduce k-point grid by
   NKREDY  =     1    reduce k-point grid by
   NKREDZ  =     1    reduce k-point grid by
   SHIFTRED=     F    shift reduced grid of Gamma
   HFKIDENT=     F    idential grid for each k-point
   ODDONLY =     F    use only odd q-grid points
   EVENONLY=     F    use only even q-grid points
   HFALPHA =   -1.0000 decay constant for conv. correction
   MCALPHA =    0.0000 extent of test-charge in conv. correction in multipole expansion
   AEXX    =    1.0000 exact exchange contribution
   HFSCREEN=    0.0000 screening length (either q_TF or 0.3 A-1)
   HFSCREENC=   0.0000 screening length for correlation (either q_TF or 0.3 A-1)
   HFRCUT  =    0.0000 spherical cutoff for potential kernel
   HFRCUTSOFT=    0.0000 smooth spherical cutoff for potential kernel
   SLABRCUT=    0.0000 cutoff in one direction for potential kernel
   SLABRCUT_DIRECTION=   3 cutoff direction for SLABRCUT
   ERFCRAY_SCREEN=    0.0000 screening factor for erfc+rayleigh like screening for potential kernel
   RAYLEXP=    0.0000  rayleigh exponent in erfc+rayleigh like screening
   ALDAX   =    0.0000 LDA exchange part
   AGGAX   =    0.0000 GGA exchange part
   ALDAC   =    0.0000 LDA correlation
   AGGAC   =    0.0000 GGA correlation
   ENCUTFOCK=  -1.0 apply spherical cutoff to Coloumb kernel
   NBANDSGWLOW=     1    first orbital included in HF term
   NBLOCK_FOCK=    64    blocking factor in FOCK_ACC

 Linear response parameters
   LEPSILON=     F    determine dielectric tensor
   LRPA    =     F    only Hartree local field effects (RPA)
   LNABLA  =     F    use nabla operator in PAW spheres
   LVEL    =     F    velocity operator in full k-point grid
   CSHIFT  =0.1000    complex shift for real part using Kramers Kronig
   OMEGAMAX=  -1.0    maximum frequency
   DEG_THRESHOLD= 0.2000000E-02 threshold for treating states as degnerate
   RTIME   =   -0.100 relaxation time in fs
  (WPLASMAI=    0.000 imaginary part of plasma frequency in eV, 0.658/RTIME)
   DFIELD  = 0.0000000 0.0000000 0.0000000 field for delta impulse in time
 
  Optional k-point grid parameters
   LKPOINTS_OPT  =     F    use optional k-point grid
   KPOINTS_OPT_MODE=     1    mode for optional k-point grid
 
 Orbital magnetization related:
   ORBITALMAG=     F  switch on orbital magnetization
   LCHIMAG   =     F  perturbation theory with respect to B field
   DQ        =  0.001000  dq finite difference perturbation B field
   LLRAUG    =     F  two centre corrections for induced B field



--------------------------------------------------------------------------------------------------------


 Static calculation
 charge density and potential will be updated during run
 non-spin polarized calculation
 Subrot: only subspace diagonalization (rotation)
    band-by band algorithm
 perform sub-space diagonalisation
    before iterative eigenvector-optimisation
 Kerker-like  mixing scheme
 using additional bands         7295
 reciprocal scheme for non local part
 use partial core corrections
 calculate Harris-corrections to forces 
   (improved forces if not selfconsistent)
 use gradient corrections 
 use of overlap-Matrix (Vanderbilt PP)
 Methfessel and Paxton  Order N= 1 SIGMA  =   0.00


--------------------------------------------------------------------------------------------------------


  energy-cutoff  :      400.00
  volume of cell :      406.54
      direct lattice vectors                 reciprocal lattice vectors
     7.408002056  0.000000000  0.000000000     0.134989163  0.000000000  0.000000000
     0.000000000  7.408002056  0.000000000     0.000000000  0.134989163  0.000000000
     0.000000000  0.000000000  7.408002056     0.000000000  0.000000000  0.134989163

  length of vectors
     7.408002056  7.408002056  7.408002056     0.134989163  0.134989163  0.134989163


 
 old parameters found on file WAVECAR:
  energy-cutoff  :      400.00
  volume of cell :      406.54
      direct lattice vectors                 reciprocal lattice vectors
     7.408002056  0.000000000  0.000000000     0.134989163  0.000000000  0.000000000
     0.000000000  7.408002056  0.000000000     0.000000000  0.134989163  0.000000000
     0.000000000  0.000000000  7.408002056     0.000000000  0.000000000  0.134989163

  length of vectors

 
 k-points in units of 2pi/SCALE and weight: Automatically generated mesh            
   0.00000000  0.00000000  0.00000000       1.000
 
 k-points in reciprocal lattice and weights: Automatically generated mesh            
   0.00000000  0.00000000  0.00000000       1.000
 
 position of ions in fractional coordinates (direct lattice) 
   0.00000000  0.00000000  0.00000000
   0.00000000  0.00000000  0.21882593
 
 position of ions in cartesian coordinates  (Angst):
   0.00000000  0.00000000  0.00000000
   0.00000000  0.00000000  1.62106295
 


--------------------------------------------------------------------------------------------------------


 use serial FFT for orbitals x direction half grid
 k-point   1 :   0.0000 0.0000 0.0000  plane waves:    3625

 maximum and minimum number of plane-waves per node :      3625     3625

 maximum number of plane-waves:      3625
 maximum index in each direction: 
   IXMAX=   12   IYMAX=   12   IZMAX=   12
   IXMIN=    0   IYMIN=  -12   IZMIN=  -12


 serial   3D FFT for wavefunctions
 parallel 3D FFT for charge:
    minimum data exchange during FFTs selected (reduces bandwidth)


 FFT grid for exact exchange (Hartree Fock) 
  NGX = 40; NGY = 40; NGZ = 40

 use serial FFT for orbitals x direction half grid
 
 Radii for the augmentation spheres in the non-local exchange
 for species   1 augmentation radius   1.299 (default was   1.039)
       energy cutoff for augmentation   1600.0
 for species   2 augmentation radius   0.735 (default was   0.588)
       energy cutoff for augmentation   1600.0
 Maximum index for augmentation-charges in exchange         1419
  SETUP_FOCK is finished

 total amount of memory used by VASP MPI-rank0    46856. kBytes
=======================================================================

   base      :      30000. kBytes
   nonl-proj :        875. kBytes
   fftplans  :       1099. kBytes
   grid      :       5508. kBytes
   one-center:          8. kBytes
   HF        :         67. kBytes
   nonlr-proj:        369. kBytes
   wavefun   :       8930. kBytes
 
     INWAV:  cpu time      1.2461: real time      1.2537
 charge density for first step will be calculated from the start-wavefunctions


--------------------------------------------------------------------------------------------------------


 Maximum index for augmentation-charges          577 (set IRDMAX)


--------------------------------------------------------------------------------------------------------


 initial charge from wavefunction
    FEWALD:  cpu time      0.0003: real time      0.0003


--------------------------------------- Iteration      1(   1)  ---------------------------------------


    POTLOK:  cpu time      0.0113: real time      0.0116
    SETDIJ:  cpu time      0.0029: real time      0.0029
    EDDIAG:  cpu time     59.5850: real time     60.0382
       DOS:  cpu time      0.0009: real time      0.0009
    --------------------------------------------
      LOOP:  cpu time     59.6002: real time     60.0536

 eigenvalue-minimisations  :     0
 total energy-change (2. order) :-0.7554784E+01  ( 0.0000000E+00)
 number of electron       1.9999999 magnetization 
 augmentation part        0.0151808 magnetization 

 Free energy of the ion-electron system (eV)
  ---------------------------------------------------
  alpha Z        PSCENC =         0.21989830
  Ewald energy   TEWEN  =        -1.93848068
  -Hartree energ DENC   =       -14.71141310
  -exchange      EXHF   =        12.87196307
  -V(xc)+E(xc)   XCENC  =         0.00000000
  PAW double counting   =        17.50121992      -17.51375768
  entropy T*S    EENTRO =         0.00000000
  eigenvalues    EBANDS =       -17.21248086
  atomic energy  EATOM  =        13.22826673
  Solvation  Ediel_sol  =         0.00000000
  ---------------------------------------------------
  free energy    TOTEN  =        -7.55478430 eV

  energy without entropy =       -7.55478430  energy(sigma->0) =       -7.55478430
  exchange ACFDT corr.  =         0.00000000  see jH, gK, PRB 81, 115126


--------------------------------------------------------------------------------------------------------




 average (electrostatic) potential at core
  the test charge radii are     1.0393  0.5883
  (the norm of the test charge is              1.0000)
       1   2.1473       2 -18.0612
 
 
 
 E-fermi :  -7.6905     XC(G=0):   0.0000     alpha+bet : -0.3321

 Fermi energy:        -7.6905301515

 k-point     1 :       0.0000    0.0000    0.0000
  band No.  band energies     occupation 
      1      -8.6062      2.00000
      2       0.1028      0.00000
      3       2.0870      0.00000
      4       2.2608      0.00000
      5       2.2608      0.00000
      6       2.7217      0.00000
      7       2.7402      0.00000
      8       3.7515      0.00000
      9       4.7373      0.00000
     10       4.7373      0.00000
     11       5.0805      0.00000
     12       5.3509      0.00000
     13       5.3982      0.00000
     14       5.3982      0.00000
     15       5.4823      0.00000
     16       5.5319      0.00000
     17       5.6305      0.00000
     18       5.6821      0.00000
     19       5.6821      0.00000
     20       7.3277      0.00000
     21       7.8910      0.00000
     22       7.8910      0.00000
     23       8.1912      0.00000
     24       8.1968      0.00000
     25       8.1968      0.00000
     26       8.3380      0.00000
     27       8.3645      0.00000
     28       9.8264      0.00000
     29      10.3481      0.00000
     30      10.3481      0.00000
     31      10.4909      0.00000
     32      10.6859      0.00000
     33      11.1123      0.00000
     34      12.0297      0.00000
     35      12.4973      0.00000
     36      12.4973      0.00000
     37      12.5856      0.00000
     38      13.2576      0.00000
     39      13.3382      0.00000
     40      13.3907      0.00000
     41      13.3907      0.00000
     42      13.5476      0.00000
     43      13.5568      0.00000
     44      13.5568      0.00000
     45      13.5895      0.00000
     46      13.6775      0.00000
     47      13.6775      0.00000
     48      13.7030      0.00000
     49      13.7851      0.00000
     50      13.8274      0.00000
     51      13.8274      0.00000
     52      13.8716      0.00000
     53      13.9034      0.00000
     54      13.9973      0.00000
     55      13.9973      0.00000
     56      14.0701      0.00000
     57      14.1741      0.00000
     58      15.4601      0.00000
     59      15.7221      0.00000
     60      15.7221      0.00000
     61      16.0331      0.00000
     62      16.0331      0.00000
     63      16.0399      0.00000
     64      16.0839      0.00000
     65      16.2920      0.00000
     66      16.3899      0.00000
     67      16.4637      0.00000
     68      16.4637      0.00000
     69      16.4768      0.00000
     70      16.5092      0.00000
     71      16.5245      0.00000
     72      16.5245      0.00000
     73      16.5797      0.00000
     74      16.6241      0.00000
     75      16.6241      0.00000
     76      16.6333      0.00000
     77      16.6545      0.00000
     78      16.6639      0.00000
     79      16.6639      0.00000
     80      16.7563      0.00000
     81      17.0680      0.00000
     82      20.9165      0.00000
     83      21.1846      0.00000
     84      21.1846      0.00000
     85      21.2212      0.00000
     86      21.6374      0.00000
     87      21.7578      0.00000
     88      21.7578      0.00000
     89      21.7969      0.00000
     90      21.7969      0.00000
     91      21.8865      0.00000
     92      21.9253      0.00000
     93      22.2491      0.00000
     94      23.2423      0.00000
     95      23.4765      0.00000
     96      23.4765      0.00000
     97      23.5766      0.00000
     98      24.1768      0.00000
     99      24.1768      0.00000
    100      24.1899      0.00000
    101      24.2207      0.00000
    102      24.3665      0.00000
    103      24.3761      0.00000
    104      24.3761      0.00000
    105      24.4040      0.00000
    106      24.5196      0.00000
    107      24.6706      0.00000
    108      24.6706      0.00000
    109      24.6822      0.00000
    110      24.7059      0.00000
    111      24.7151      0.00000
    112      24.7281      0.00000
    113      24.7281      0.00000
    114      24.7691      0.00000
    115      24.7715      0.00000
    116      24.8130      0.00000
    117      24.8130      0.00000
    118      24.8456      0.00000
    119      24.8645      0.00000
    120      24.8976      0.00000
    121      24.8976      0.00000
    122      24.9716      0.00000
    123      25.3549      0.00000
    124      26.2256      0.00000
    125      26.5209      0.00000
    126      26.5209      0.00000
    127      26.7026      0.00000
    128      26.7663      0.00000
    129      27.2069      0.00000
    130      27.2159      0.00000
    131      27.2564      0.00000
    132      27.2564      0.00000
    133      27.3059      0.00000
    134      27.3422      0.00000
    135      27.3422      0.00000
    136      27.3743      0.00000
    137      27.4149      0.00000
    138      27.4149      0.00000
    139      27.4286      0.00000
    140      27.4286      0.00000
    141      27.5231      0.00000
    142      27.5249      0.00000
    143      27.5553      0.00000
    144      27.6478      0.00000
    145      27.6478      0.00000
    146      27.7149      0.00000
    147      28.1672      0.00000
    148      29.4123      0.00000
    149      29.6197      0.00000
    150      29.6197      0.00000
    151      29.6614      0.00000
    152      29.8773      0.00000
    153      29.9388      0.00000
    154      30.0077      0.00000
    155      30.0203      0.00000
    156      30.0203      0.00000
    157      30.0963      0.00000
    158      30.0963      0.00000
    159      30.1102      0.00000
    160      30.1102      0.00000
    161      30.1413      0.00000
    162      30.1499      0.00000
    163      30.1499      0.00000
    164      30.2124      0.00000
    165      30.2259      0.00000
    166      30.2357      0.00000
    167      30.2862      0.00000
    168      30.3285      0.00000
    169      30.3285      0.00000
    170      30.3446      0.00000
    171      31.0590      0.00000
    172      32.5553      0.00000
    173      32.5553      0.00000
    174      32.5943      0.00000
    175      32.7720      0.00000
    176      32.7720      0.00000
    177      32.7750      0.00000
    178      32.8491      0.00000
    179      33.0501      0.00000
    180      34.3191      0.00000
    181      34.6460      0.00000
    182      34.6460      0.00000
    183      34.9517      0.00000
    184      35.0914      0.00000
    185      35.2145      0.00000
    186      35.2145      0.00000
    187      35.2601      0.00000
    188      35.2601      0.00000
    189      35.3016      0.00000
    190      35.3890      0.00000
    191      35.5038      0.00000
    192      35.5822      0.00000
    193      35.5891      0.00000
    194      35.5891      0.00000
    195      35.5958      0.00000
    196      35.6858      0.00000
    197      35.7351      0.00000
    198      35.7351      0.00000
    199      35.7910      0.00000
    200      35.7910      0.00000
    201      35.8203      0.00000
    202      35.8377      0.00000
    203      36.2952      0.00000
    204      37.2851      0.00000
    205      37.3331      0.00000
    206      37.3331      0.00000
    207      37.4898      0.00000
    208      37.7866      0.00000
    209      37.7866      0.00000
    210      37.7972      0.00000
    211      37.9860      0.00000
    212      37.9917      0.00000
    213      38.0648      0.00000
    214      38.1119      0.00000
    215      38.1126      0.00000
    216      38.1126      0.00000
    217      38.1939      0.00000
    218      38.1974      0.00000
    219      38.1974      0.00000
    220      38.2092      0.00000
    221      38.2092      0.00000
    222      38.2292      0.00000
    223      38.2292      0.00000
    224      38.2475      0.00000
    225      38.2922      0.00000
    226      38.3700      0.00000
    227      38.4040      0.00000
    228      38.4100      0.00000
    229      38.4363      0.00000
    230      38.4363      0.00000
    231      38.4523      0.00000
    232      38.4886      0.00000
    233      38.4941      0.00000
    234      38.4941      0.00000
    235      38.5091      0.00000
    236      38.5091      0.00000
    237      38.5191      0.00000
    238      38.5793      0.00000
    239      38.6187      0.00000
    240      38.6191      0.00000
    241      38.6325      0.00000
    242      38.6325      0.00000
    243      38.6580      0.00000
    244      38.6580      0.00000
    245      38.6635      0.00000
    246      38.6752      0.00000
    247      38.6857      0.00000
    248      38.7064      0.00000
    249      38.7064      0.00000
    250      38.7108      0.00000
    251      39.9318      0.00000
    252      43.1513      0.00000
    253      43.1513      0.00000
    254      43.1933      0.00000
    255      43.3930      0.00000
    256      43.5154      0.00000
    257      43.9050      0.00000
    258      44.8881      0.00000
    259      45.0707      0.00000
    260      45.0707      0.00000
    261      45.4308      0.00000
    262      45.7968      0.00000
    263      45.8609      0.00000
    264      45.9579      0.00000
    265      45.9756      0.00000
    266      45.9756      0.00000
    267      46.1003      0.00000
    268      46.1003      0.00000
    269      46.1211      0.00000
    270      46.1846      0.00000
    271      46.4348      0.00000
    272      46.4348      0.00000
    273      46.4430      0.00000
    274      46.4544      0.00000
    275      46.4575      0.00000
    276      46.5046      0.00000
    277      46.5046      0.00000
    278      46.5193      0.00000
    279      46.5731      0.00000
    280      46.5731      0.00000
    281      46.6060      0.00000
    282      46.6060      0.00000
    283      46.6193      0.00000
    284      46.6593      0.00000
    285      46.6642      0.00000
    286      46.6642      0.00000
    287      46.6683      0.00000
    288      46.6742      0.00000
    289      46.6742      0.00000
    290      46.6748      0.00000
    291      46.6899      0.00000
    292      46.7076      0.00000
    293      46.7080      0.00000
    294      46.7262      0.00000
    295      46.7262      0.00000
    296      46.7419      0.00000
    297      46.7790      0.00000
    298      46.7883      0.00000
    299      46.7883      0.00000
    300      46.8145      0.00000
    301      46.8404      0.00000
    302      46.8707      0.00000
    303      46.8707      0.00000
    304      46.8918      0.00000
    305      47.7165      0.00000
    306      48.4921      0.00000
    307      48.6163      0.00000
    308      48.6163      0.00000
    309      48.8953      0.00000
    310      48.9355      0.00000
    311      48.9572      0.00000
    312      48.9943      0.00000
    313      49.0887      0.00000
    314      49.0887      0.00000
    315      49.1354      0.00000
    316      49.1354      0.00000
    317      49.2129      0.00000
    318      49.2572      0.00000
    319      49.2574      0.00000
    320      49.2574      0.00000
    321      49.2596      0.00000
    322      49.2816      0.00000
    323      49.2816      0.00000
    324      49.3052      0.00000
    325      49.3189      0.00000
    326      49.3216      0.00000
    327      49.3216      0.00000
    328      49.3289      0.00000
    329      49.3376      0.00000
    330      49.3665      0.00000
    331      49.3665      0.00000
    332      49.3898      0.00000
    333      49.3898      0.00000
    334      49.4122      0.00000
    335      49.4133      0.00000
    336      49.4151      0.00000
    337      49.5023      0.00000
    338      49.5185      0.00000
    339      49.5185      0.00000
    340      49.5267      0.00000
    341      50.5692      0.00000
    342      51.4210      0.00000
    343      51.5760      0.00000
    344      51.5760      0.00000
    345      51.7811      0.00000
    346      51.7811      0.00000
    347      51.8266      0.00000
    348      51.8417      0.00000
    349      51.9462      0.00000
    350      51.9481      0.00000
    351      51.9481      0.00000
    352      51.9888      0.00000
    353      52.0680      0.00000
    354      52.0748      0.00000
    355      52.0840      0.00000
    356      52.1087      0.00000
    357      52.1087      0.00000
    358      52.1162      0.00000
    359      52.1162      0.00000
    360      52.1339      0.00000
    361      52.1342      0.00000
    362      52.1623      0.00000
    363      52.1623      0.00000
    364      52.1999      0.00000
    365      53.0184      0.00000
    366      54.1508      0.00000
    367      54.2092      0.00000
    368      54.2092      0.00000
    369      54.2976      0.00000
    370      54.4963      0.00000
    371      54.5176      0.00000
    372      54.5393      0.00000
    373      54.6256      0.00000
    374      54.6256      0.00000
    375      54.6474      0.00000
    376      54.6782      0.00000
    377      54.6782      0.00000
    378      54.7187      0.00000
    379      54.7187      0.00000
    380      54.7319      0.00000
    381      54.7581      0.00000
    382      54.7745      0.00000
    383      54.7745      0.00000
    384      54.7966      0.00000
    385      54.7966      0.00000
    386      54.8013      0.00000
    387      54.8552      0.00000
    388      54.8611      0.00000
    389      55.6452      0.00000
    390      56.6459      0.00000
    391      56.6623      0.00000
    392      56.6623      0.00000
    393      56.6624      0.00000
    394      57.1118      0.00000
    395      57.1182      0.00000
    396      57.1559      0.00000
    397      57.1600      0.00000
    398      57.1600      0.00000
    399      57.2934      0.00000
    400      57.2934      0.00000
    401      57.3289      0.00000
    402      57.3333      0.00000
    403      57.3333      0.00000
    404      57.3655      0.00000
    405      57.3869      0.00000
    406      57.3869      0.00000
    407      57.4141      0.00000
    408      57.4511      0.00000
    409      57.4511      0.00000
    410      57.4722      0.00000
    411      57.4873      0.00000
    412      57.5273      0.00000
    413      57.5322      0.00000
    414      57.5966      0.00000
    415      57.5966      0.00000
    416      57.6077      0.00000
    417      57.6112      0.00000
    418      57.6500      0.00000
    419      57.6500      0.00000
    420      57.6526      0.00000
    421      57.6526      0.00000
    422      57.6675      0.00000
    423      57.6692      0.00000
    424      57.6835      0.00000
    425      57.7121      0.00000
    426      57.7261      0.00000
    427      57.7475      0.00000
    428      57.7475      0.00000
    429      57.7548      0.00000
    430      57.7548      0.00000
    431      57.7658      0.00000
    432      57.8065      0.00000
    433      57.8173      0.00000
    434      57.8665      0.00000
    435      57.8665      0.00000
    436      57.8829      0.00000
    437      58.9834      0.00000
    438      59.6105      0.00000
    439      59.6363      0.00000
    440      59.6363      0.00000
    441      59.7763      0.00000
    442      59.7763      0.00000
    443      59.7848      0.00000
    444      59.9223      0.00000
    445      60.3252      0.00000
    446      60.3570      0.00000
    447      60.3606      0.00000
    448      60.3606      0.00000
    449      60.3664      0.00000
    450      60.3689      0.00000
    451      60.3689      0.00000
    452      60.3785      0.00000
    453      60.3791      0.00000
    454      60.4382      0.00000
    455      60.4382      0.00000
    456      60.4498      0.00000
    457      60.4837      0.00000
    458      60.4988      0.00000
    459      60.4988      0.00000
    460      60.5236      0.00000
    461      61.6544      0.00000
    462      64.9921      0.00000
    463      65.0211      0.00000
    464      65.0211      0.00000
    465      65.1118      0.00000
    466      65.5365      0.00000
    467      65.5635      0.00000
    468      65.5635      0.00000
    469      65.6310      0.00000
    470      65.6552      0.00000
    471      65.6902      0.00000
    472      65.6902      0.00000
    473      65.7220      0.00000
    474      65.7361      0.00000
    475      65.7361      0.00000
    476      65.7704      0.00000
    477      65.7704      0.00000
    478      65.7716      0.00000
    479      65.7760      0.00000
    480      65.7778      0.00000
    481      65.7830      0.00000
    482      65.7830      0.00000
    483      65.7850      0.00000
    484      65.7937      0.00000
    485      66.2306      0.00000
    486      67.2423      0.00000
    487      67.2423      0.00000
    488      67.4301      0.00000
    489      67.9096      0.00000
    490      67.9249      0.00000
    491      67.9290      0.00000
    492      68.0549      0.00000
    493      68.0549      0.00000
    494      68.1229      0.00000
    495      68.1709      0.00000
    496      68.1709      0.00000
    497      68.2166      0.00000
    498      68.2218      0.00000
    499      68.2563      0.00000
    500      68.2563      0.00000
    501      68.2700      0.00000
    502      68.3127      0.00000
    503      68.4829      0.00000
    504      68.4865      0.00000
    505      68.4865      0.00000
    506      68.4868      0.00000
    507      68.5767      0.00000
    508      68.6366      0.00000
    509      68.6494      0.00000
    510      68.6494      0.00000
    511      68.6744      0.00000
    512      68.6744      0.00000
    513      68.6952      0.00000
    514      68.7025      0.00000
    515      69.2482      0.00000
    516      69.9231      0.00000
    517      70.0356      0.00000
    518      70.0356      0.00000
    519      70.2248      0.00000
    520      70.4131      0.00000
    521      70.5269      0.00000
    522      70.7055      0.00000
    523      70.7055      0.00000
    524      70.7922      0.00000
    525      70.8311      0.00000
    526      70.8678      0.00000
    527      70.8678      0.00000
    528      70.9257      0.00000
    529      70.9595      0.00000
    530      70.9919      0.00000
    531      71.0003      0.00000
    532      71.0003      0.00000
    533      71.0872      0.00000
    534      71.0938      0.00000
    535      71.0949      0.00000
    536      71.0973      0.00000
    537      71.0973      0.00000
    538      71.1099      0.00000
    539      71.1167      0.00000
    540      71.1167      0.00000
    541      71.1243      0.00000
    542      71.1243      0.00000
    543      71.1360      0.00000
    544      71.1519      0.00000
    545      71.1519      0.00000
    546      71.1562      0.00000
    547      71.1704      0.00000
    548      71.2314      0.00000
    549      71.2324      0.00000
    550      71.2407      0.00000
    551      71.2407      0.00000
    552      71.2680      0.00000
    553      71.2680      0.00000
    554      71.2982      0.00000
    555      71.3022      0.00000
    556      71.3022      0.00000
    557      71.3050      0.00000
    558      71.3050      0.00000
    559      71.3088      0.00000
    560      71.3183      0.00000
    561      71.3241      0.00000
    562      71.3657      0.00000
    563      71.3670      0.00000
    564      71.3859      0.00000
    565      71.3900      0.00000
    566      71.3900      0.00000
    567      71.4038      0.00000
    568      71.4038      0.00000
    569      71.4208      0.00000
    570      71.4342      0.00000
    571      71.4560      0.00000
    572      71.4560      0.00000
    573      71.4575      0.00000
    574      71.4603      0.00000
    575      71.4622      0.00000
    576      71.4660      0.00000
    577      71.4866      0.00000
    578      71.4866      0.00000
    579      71.4890      0.00000
    580      71.4890      0.00000
    581      71.4970      0.00000
    582      71.4989      0.00000
    583      71.5655      0.00000
    584      71.5686      0.00000
    585      71.5691      0.00000
    586      71.5691      0.00000
    587      72.9331      0.00000
    588      73.4300      0.00000
    589      73.5804      0.00000
    590      73.5804      0.00000
    591      73.6230      0.00000
    592      73.7211      0.00000
    593      73.7474      0.00000
    594      73.8563      0.00000
    595      73.8563      0.00000
    596      73.8588      0.00000
    597      73.8669      0.00000
    598      73.8913      0.00000
    599      73.8913      0.00000
    600      73.9498      0.00000
    601      73.9682      0.00000
    602      73.9682      0.00000
    603      73.9708      0.00000
    604      73.9710      0.00000
    605      73.9769      0.00000
    606      73.9769      0.00000
    607      74.0059      0.00000
    608      74.0059      0.00000
    609      74.0087      0.00000
    610      74.0286      0.00000
    611      74.0286      0.00000
    612      74.0546      0.00000
    613      74.0806      0.00000
    614      74.0810      0.00000
    615      74.1844      0.00000
    616      74.1890      0.00000
    617      74.1890      0.00000
    618      74.1936      0.00000
    619      75.8198      0.00000
    620      77.9617      0.00000
    621      77.9617      0.00000
    622      77.9913      0.00000
    623      78.2630      0.00000
    624      78.6876      0.00000
    625      78.7104      0.00000
    626      78.7104      0.00000
    627      78.9719      0.00000
    628      79.0315      0.00000
    629      79.0545      0.00000
    630      79.1669      0.00000
    631      79.1691      0.00000
    632      79.1691      0.00000
    633      79.1850      0.00000
    634      79.1850      0.00000
    635      79.1948      0.00000
    636      79.2108      0.00000
    637      79.2108      0.00000
    638      79.2228      0.00000
    639      79.2485      0.00000
    640      79.2554      0.00000
    641      79.2554      0.00000
    642      79.2576      0.00000
    643      79.2622      0.00000
    644      79.3141      0.00000
    645      79.3278      0.00000
    646      79.3278      0.00000
    647      79.3368      0.00000
    648      79.3374      0.00000
    649      79.3427      0.00000
    650      79.3427      0.00000
    651      79.3620      0.00000
    652      79.4010      0.00000
    653      79.4162      0.00000
    654      79.4162      0.00000
    655      79.4278      0.00000
    656      79.4522      0.00000
    657      79.4522      0.00000
    658      79.4669      0.00000
    659      79.4772      0.00000
    660      79.4772      0.00000
    661      79.4817      0.00000
    662      79.4840      0.00000
    663      79.4840      0.00000
    664      79.4856      0.00000
    665      79.5039      0.00000
    666      79.5075      0.00000
    667      79.5723      0.00000
    668      79.5734      0.00000
    669      79.5734      0.00000
    670      79.5806      0.00000
    671      79.5817      0.00000
    672      79.5817      0.00000
    673      79.5825      0.00000
    674      79.5864      0.00000
    675      79.6469      0.00000
    676      79.6729      0.00000
    677      79.6729      0.00000
    678      79.6813      0.00000
    679      79.6958      0.00000
    680      79.7047      0.00000
    681      79.7047      0.00000
    682      79.7237      0.00000
    683      79.7648      0.00000
    684      79.7700      0.00000
    685      79.7749      0.00000
    686      79.7749      0.00000
    687      79.7792      0.00000
    688      79.7792      0.00000
    689      79.7812      0.00000
    690      79.7843      0.00000
    691      80.9814      0.00000
    692      81.3669      0.00000
    693      81.5968      0.00000
    694      81.5968      0.00000
    695      81.7044      0.00000
    696      81.7624      0.00000
    697      81.9055      0.00000
    698      81.9055      0.00000
    699      81.9173      0.00000
    700      81.9905      0.00000
    701      81.9968      0.00000
    702      82.0059      0.00000
    703      82.0059      0.00000
    704      82.0446      0.00000
    705      82.0554      0.00000
    706      82.0554      0.00000
    707      82.0897      0.00000
    708      82.0897      0.00000
    709      82.1323      0.00000
    710      82.1358      0.00000
    711      82.1358      0.00000
    712      82.1409      0.00000
    713      82.1861      0.00000
    714      82.2121      0.00000
    715      82.2161      0.00000
    716      82.2764      0.00000
    717      82.2798      0.00000
    718      82.2798      0.00000
    719      82.2800      0.00000
    720      82.3211      0.00000
    721      82.3211      0.00000
    722      82.3213      0.00000
    723      82.3213      0.00000
    724      82.3280      0.00000
    725      82.3374      0.00000
    726      82.3374      0.00000
    727      82.4047      0.00000
    728      82.4106      0.00000
    729      82.4222      0.00000
    730      82.4222      0.00000
    731      82.4292      0.00000
    732      82.4321      0.00000
    733      82.4321      0.00000
    734      82.4665      0.00000
    735      82.5011      0.00000
    736      82.5315      0.00000
    737      82.5315      0.00000
    738      82.5448      0.00000
    739      85.0183      0.00000
    740      87.1595      0.00000
    741      87.1595      0.00000
    742      87.2276      0.00000
    743      87.3724      0.00000
    744      87.4832      0.00000
    745      87.5306      0.00000
    746      87.5306      0.00000
    747      87.5953      0.00000
    748      87.5953      0.00000
    749      87.5983      0.00000
    750      87.6571      0.00000
    751      88.0654      0.00000
    752      89.3474      0.00000
    753      89.4036      0.00000
    754      89.4036      0.00000
    755      89.6335      0.00000
    756      90.0168      0.00000
    757      90.0168      0.00000
    758      90.0348      0.00000
    759      90.1557      0.00000
    760      90.2229      0.00000
    761      90.2230      0.00000
    762      90.2545      0.00000
    763      90.2981      0.00000
    764      90.3386      0.00000
    765      90.3472      0.00000
    766      90.3472      0.00000
    767      90.3573      0.00000
    768      90.3755      0.00000
    769      90.3755      0.00000
    770      90.3784      0.00000
    771      90.3819      0.00000
    772      90.3819      0.00000
    773      90.3829      0.00000
    774      90.3925      0.00000
    775      90.3940      0.00000
    776      90.3943      0.00000
    777      90.3961      0.00000
    778      90.3961      0.00000
    779      90.4100      0.00000
    780      90.4296      0.00000
    781      90.4336      0.00000
    782      90.4368      0.00000
    783      90.4368      0.00000
    784      90.4414      0.00000
    785      90.4509      0.00000
    786      90.4509      0.00000
    787      90.5058      0.00000
    788      90.5058      0.00000
    789      90.5067      0.00000
    790      90.5139      0.00000
    791      90.5185      0.00000
    792      90.5185      0.00000
    793      90.5212      0.00000
    794      90.5240      0.00000
    795      90.5934      0.00000
    796      90.5993      0.00000
    797      90.5993      0.00000
    798      90.6046      0.00000
    799      91.5589      0.00000
    800      92.2686      0.00000
    801      92.3126      0.00000
    802      92.3126      0.00000
    803      92.5807      0.00000
    804      92.5807      0.00000
    805      92.6181      0.00000
    806      92.6450      0.00000
    807      92.8108      0.00000
    808      92.8991      0.00000
    809      92.8991      0.00000
    810      92.9041      0.00000
    811      92.9181      0.00000
    812      92.9328      0.00000
    813      92.9591      0.00000
    814      93.0184      0.00000
    815      93.0222      0.00000
    816      93.0222      0.00000
    817      93.0478      0.00000
    818      93.0848      0.00000
    819      93.0848      0.00000
    820      93.0963      0.00000
    821      93.0996      0.00000
    822      93.1151      0.00000
    823      93.1151      0.00000
    824      93.1251      0.00000
    825      93.1251      0.00000
    826      93.1580      0.00000
    827      93.1580      0.00000
    828      93.1581      0.00000
    829      93.1807      0.00000
    830      93.1925      0.00000
    831      93.2618      0.00000
    832      93.2657      0.00000
    833      93.2657      0.00000
    834      93.2659      0.00000
    835      93.2689      0.00000
    836      93.2689      0.00000
    837      93.2690      0.00000
    838      93.2718      0.00000
    839      93.3564      0.00000
    840      93.3736      0.00000
    841      93.3736      0.00000
    842      93.3794      0.00000
    843      93.3830      0.00000
    844      93.3924      0.00000
    845      93.3924      0.00000
    846      93.3927      0.00000
    847      94.3956      0.00000
    848      95.1193      0.00000
    849      95.3294      0.00000
    850      95.3294      0.00000
    851      95.4668      0.00000
    852      95.6447      0.00000
    853      95.6833      0.00000
    854      95.6899      0.00000
    855      95.6906      0.00000
    856      95.6906      0.00000
    857      95.7290      0.00000
    858      95.7290      0.00000
    859      95.7734      0.00000
    860      95.8194      0.00000
    861      95.8194      0.00000
    862      95.8545      0.00000
    863      95.8641      0.00000
    864      95.8685      0.00000
    865      95.8685      0.00000
    866      95.8778      0.00000
    867      95.8783      0.00000
    868      95.8783      0.00000
    869      95.8894      0.00000
    870      95.8940      0.00000
    871      95.9363      0.00000
    872      95.9477      0.00000
    873      95.9543      0.00000
    874      95.9543      0.00000
    875      95.9583      0.00000
    876      95.9599      0.00000
    877      95.9599      0.00000
    878      95.9696      0.00000
    879      95.9698      0.00000
    880      95.9752      0.00000
    881      95.9774      0.00000
    882      95.9774      0.00000
    883      95.9833      0.00000
    884      95.9966      0.00000
    885      95.9966      0.00000
    886      96.0022      0.00000
    887      96.0022      0.00000
    888      96.0099      0.00000
    889      96.0128      0.00000
    890      96.0134      0.00000
    891      96.1078      0.00000
    892      96.1176      0.00000
    893      96.1176      0.00000
    894      96.1263      0.00000
    895      97.2454      0.00000
    896      98.0695      0.00000
    897      98.0695      0.00000
    898      98.2231      0.00000
    899      98.2238      0.00000
    900      98.2338      0.00000
    901      98.4098      0.00000
    902      98.4615      0.00000
    903      98.4765      0.00000
    904      98.4765      0.00000
    905      98.5225      0.00000
    906      98.5225      0.00000
    907      98.5248      0.00000
    908      98.5767      0.00000
    909      98.5970      0.00000
    910      98.5970      0.00000
    911      98.6211      0.00000
    912      98.6463      0.00000
    913      98.6535      0.00000
    914      98.6644      0.00000
    915      98.6644      0.00000
    916      98.6738      0.00000
    917      98.6779      0.00000
    918      98.6779      0.00000
    919      98.6782      0.00000
    920      98.6782      0.00000
    921      98.6788      0.00000
    922      98.6830      0.00000
    923      98.6841      0.00000
    924      98.6849      0.00000
    925      99.6330      0.00000
    926     100.4212      0.00000
    927     100.5576      0.00000
    928     100.5576      0.00000
    929     100.6580      0.00000
    930     100.6639      0.00000
    931     101.2653      0.00000
    932     101.2812      0.00000
    933     101.2812      0.00000
    934     101.2843      0.00000
    935     101.3271      0.00000
    936     101.3577      0.00000
    937     101.3577      0.00000
    938     101.3780      0.00000
    939     101.4393      0.00000
    940     101.4393      0.00000
    941     101.4471      0.00000
    942     101.4471      0.00000
    943     101.5256      0.00000
    944     101.5257      0.00000
    945     101.6308      0.00000
    946     101.6797      0.00000
    947     101.6797      0.00000
    948     101.7042      0.00000
    949     101.9300      0.00000
    950     103.0319      0.00000
    951     103.1350      0.00000
    952     103.1350      0.00000
    953     103.5013      0.00000
    954     103.6768      0.00000
    955     103.6952      0.00000
    956     103.6984      0.00000
    957     103.7203      0.00000
    958     103.7203      0.00000
    959     103.8878      0.00000
    960     103.8878      0.00000
    961     103.9154      0.00000
    962     103.9271      0.00000
    963     103.9284      0.00000
    964     103.9284      0.00000
    965     103.9305      0.00000
    966     103.9397      0.00000
    967     103.9397      0.00000
    968     103.9407      0.00000
    969     103.9492      0.00000
    970     103.9492      0.00000
    971     103.9548      0.00000
    972     104.0094      0.00000
    973     104.0119      0.00000
    974     104.0173      0.00000
    975     104.0268      0.00000
    976     104.0419      0.00000
    977     104.0561      0.00000
    978     104.0561      0.00000
    979     104.1199      0.00000
    980     104.1241      0.00000
    981     104.1241      0.00000
    982     104.1355      0.00000
    983     104.1433      0.00000
    984     104.1433      0.00000
    985     104.1449      0.00000
    986     104.1750      0.00000
    987     104.1750      0.00000
    988     104.1874      0.00000
    989     104.1874      0.00000
    990     104.1884      0.00000
    991     104.2267      0.00000
    992     104.2296      0.00000
    993     104.2329      0.00000
    994     104.2329      0.00000
    995     104.2337      0.00000
    996     104.2337      0.00000
    997     104.2395      0.00000
    998     104.2399      0.00000
    999     104.2407      0.00000
   1000     104.2421      0.00000
   1001     104.2786      0.00000
   1002     104.2809      0.00000
   1003     104.2818      0.00000
   1004     104.2818      0.00000
   1005     104.2852      0.00000
   1006     104.3092      0.00000
   1007     104.3092      0.00000
   1008     104.3338      0.00000
   1009     104.3442      0.00000
   1010     104.3444      0.00000
   1011     104.3444      0.00000
   1012     104.3459      0.00000
   1013     104.3491      0.00000
   1014     104.3543      0.00000
   1015     104.3620      0.00000
   1016     104.3620      0.00000
   1017     104.3699      0.00000
   1018     104.3699      0.00000
   1019     104.3732      0.00000
   1020     104.3773      0.00000
   1021     106.2700      0.00000
   1022     108.7756      0.00000
   1023     108.8990      0.00000
   1024     108.8990      0.00000
   1025     109.1788      0.00000
   1026     109.2876      0.00000
   1027     109.3639      0.00000
   1028     109.4387      0.00000
   1029     109.4483      0.00000
   1030     109.4507      0.00000
   1031     109.4507      0.00000
   1032     109.4969      0.00000
   1033     109.4969      0.00000
   1034     109.5457      0.00000
   1035     109.5540      0.00000
   1036     109.5540      0.00000
   1037     109.6100      0.00000
   1038     109.6101      0.00000
   1039     109.6202      0.00000
   1040     109.6202      0.00000
   1041     109.6221      0.00000
   1042     109.6325      0.00000
   1043     109.6614      0.00000
   1044     109.6640      0.00000
   1045     109.9051      0.00000
   1046     110.9116      0.00000
   1047     110.9116      0.00000
   1048     110.9424      0.00000
   1049     111.3030      0.00000
   1050     111.5950      0.00000
   1051     111.6642      0.00000
   1052     111.6642      0.00000
   1053     111.7339      0.00000
   1054     111.8191      0.00000
   1055     111.9079      0.00000
   1056     111.9138      0.00000
   1057     111.9138      0.00000
   1058     111.9695      0.00000
   1059     111.9969      0.00000
   1060     111.9969      0.00000
   1061     112.0391      0.00000
   1062     112.0519      0.00000
   1063     112.0685      0.00000
   1064     112.0721      0.00000
   1065     112.0721      0.00000
   1066     112.0863      0.00000
   1067     112.0966      0.00000
   1068     112.0998      0.00000
   1069     112.0998      0.00000
   1070     112.1268      0.00000
   1071     112.1339      0.00000
   1072     112.1408      0.00000
   1073     112.1598      0.00000
   1074     112.1598      0.00000
   1075     112.1852      0.00000
   1076     112.1852      0.00000
   1077     112.2038      0.00000
   1078     112.2240      0.00000
   1079     112.2240      0.00000
   1080     112.2321      0.00000
   1081     112.2497      0.00000
   1082     112.2497      0.00000
   1083     112.2778      0.00000
   1084     112.2778      0.00000
   1085     112.2788      0.00000
   1086     112.2803      0.00000
   1087     112.3176      0.00000
   1088     112.3261      0.00000
   1089     112.3363      0.00000
   1090     112.3363      0.00000
   1091     112.3458      0.00000
   1092     112.3571      0.00000
   1093     112.3594      0.00000
   1094     112.3947      0.00000
   1095     112.3947      0.00000
   1096     112.4140      0.00000
   1097     112.4206      0.00000
   1098     112.4421      0.00000
   1099     112.4441      0.00000
   1100     112.4444      0.00000
   1101     112.4444      0.00000
   1102     112.4453      0.00000
   1103     112.4474      0.00000
   1104     112.4483      0.00000
   1105     112.4483      0.00000
   1106     112.4511      0.00000
   1107     112.4663      0.00000
   1108     112.4663      0.00000
   1109     112.4677      0.00000
   1110     112.4677      0.00000
   1111     112.4790      0.00000
   1112     112.4857      0.00000
   1113     112.4857      0.00000
   1114     112.5061      0.00000
   1115     112.5061      0.00000
   1116     112.5069      0.00000
   1117     112.5268      0.00000
   1118     112.5268      0.00000
   1119     112.5437      0.00000
   1120     112.5483      0.00000
   1121     112.5686      0.00000
   1122     112.5706      0.00000
   1123     112.5763      0.00000
   1124     112.5763      0.00000
   1125     112.5789      0.00000
   1126     112.5902      0.00000
   1127     112.5928      0.00000
   1128     112.5933      0.00000
   1129     112.5933      0.00000
   1130     112.6004      0.00000
   1131     112.6004      0.00000
   1132     112.6037      0.00000
   1133     112.6105      0.00000
   1134     112.6143      0.00000
   1135     112.6143      0.00000
   1136     112.6203      0.00000
   1137     112.6758      0.00000
   1138     112.6814      0.00000
   1139     112.6814      0.00000
   1140     112.6881      0.00000
   1141     113.6945      0.00000
   1142     114.4615      0.00000
   1143     114.5192      0.00000
   1144     114.5192      0.00000
   1145     114.6850      0.00000
   1146     114.6850      0.00000
   1147     114.7664      0.00000
   1148     114.7961      0.00000
   1149     114.8088      0.00000
   1150     114.8686      0.00000
   1151     114.9231      0.00000
   1152     114.9231      0.00000
   1153     114.9295      0.00000
   1154     114.9714      0.00000
   1155     114.9714      0.00000
   1156     114.9717      0.00000
   1157     114.9736      0.00000
   1158     114.9736      0.00000
   1159     114.9737      0.00000
   1160     114.9747      0.00000
   1161     114.9860      0.00000
   1162     115.1030      0.00000
   1163     115.1030      0.00000
   1164     115.1398      0.00000
   1165     115.1474      0.00000
   1166     115.1484      0.00000
   1167     115.1489      0.00000
   1168     115.1489      0.00000
   1169     115.1783      0.00000
   1170     115.2178      0.00000
   1171     115.2178      0.00000
   1172     115.2235      0.00000
   1173     115.2391      0.00000
   1174     115.2391      0.00000
   1175     115.2399      0.00000
   1176     115.2607      0.00000
   1177     115.3106      0.00000
   1178     115.3106      0.00000
   1179     115.3108      0.00000
   1180     115.3113      0.00000
   1181     115.3276      0.00000
   1182     115.3309      0.00000
   1183     115.3361      0.00000
   1184     115.3361      0.00000
   1185     115.3369      0.00000
   1186     115.3369      0.00000
   1187     115.3411      0.00000
   1188     115.3419      0.00000
   1189     115.8582      0.00000
   1190     117.5079      0.00000
   1191     117.5079      0.00000
   1192     117.5316      0.00000
   1193     117.6462      0.00000
   1194     117.6816      0.00000
   1195     117.6816      0.00000
   1196     117.6862      0.00000
   1197     117.7570      0.00000
   1198     117.7945      0.00000
   1199     117.7945      0.00000
   1200     117.7995      0.00000
   1201     117.8227      0.00000
   1202     117.8254      0.00000
   1203     117.8254      0.00000
   1204     117.8349      0.00000
   1205     117.8483      0.00000
   1206     117.8499      0.00000
   1207     117.8499      0.00000
   1208     117.8555      0.00000
   1209     117.8574      0.00000
   1210     117.8601      0.00000
   1211     117.8621      0.00000
   1212     117.8621      0.00000
   1213     118.2475      0.00000
   1214     120.0392      0.00000
   1215     120.1517      0.00000
   1216     120.1517      0.00000
   1217     120.4119      0.00000
   1218     120.4327      0.00000
   1219     120.4866      0.00000
   1220     120.4866      0.00000
   1221     120.4957      0.00000
   1222     120.5748      0.00000
   1223     120.5748      0.00000
   1224     120.5773      0.00000
   1225     120.5835      0.00000
   1226     120.5835      0.00000
   1227     120.5842      0.00000
   1228     120.5865      0.00000
   1229     120.5870      0.00000
   1230     120.5870      0.00000
   1231     120.5895      0.00000
   1232     120.5895      0.00000
   1233     120.5919      0.00000
   1234     120.5931      0.00000
   1235     120.5931      0.00000
   1236     120.6019      0.00000
   1237     120.7082      0.00000
   1238     122.3818      0.00000
   1239     122.3818      0.00000
   1240     122.3928      0.00000
   1241     122.6016      0.00000
   1242     122.8921      0.00000
   1243     122.8921      0.00000
   1244     122.8984      0.00000
   1245     122.9789      0.00000
   1246     122.9980      0.00000
   1247     123.0313      0.00000
   1248     123.0313      0.00000
   1249     123.0941      0.00000
   1250     123.1006      0.00000
   1251     123.1193      0.00000
   1252     123.1193      0.00000
   1253     123.1200      0.00000
   1254     123.1234      0.00000
   1255     123.1244      0.00000
   1256     123.1248      0.00000
   1257     123.1248      0.00000
   1258     123.1312      0.00000
   1259     123.1360      0.00000
   1260     123.1360      0.00000
   1261     123.1363      0.00000
   1262     123.1514      0.00000
   1263     123.1532      0.00000
   1264     123.1532      0.00000
   1265     123.1781      0.00000
   1266     123.2034      0.00000
   1267     123.2113      0.00000
   1268     123.2113      0.00000
   1269     123.2629      0.00000
   1270     123.2680      0.00000
   1271     123.2680      0.00000
   1272     123.2682      0.00000
   1273     123.2733      0.00000
   1274     123.2772      0.00000
   1275     123.2793      0.00000
   1276     123.2949      0.00000
   1277     123.2949      0.00000
   1278     123.3023      0.00000
   1279     123.3066      0.00000
   1280     123.3066      0.00000
   1281     123.3202      0.00000
   1282     123.3266      0.00000
   1283     123.3266      0.00000
   1284     123.3475      0.00000
   1285     123.4238      0.00000
   1286     123.4247      0.00000
   1287     123.4253      0.00000
   1288     123.4253      0.00000
   1289     123.4407      0.00000
   1290     123.4407      0.00000
   1291     123.4415      0.00000
   1292     123.4416      0.00000
   1293     123.4552      0.00000
   1294     123.4679      0.00000
   1295     123.4819      0.00000
   1296     123.4819      0.00000
   1297     123.4865      0.00000
   1298     123.4865      0.00000
   1299     123.4951      0.00000
   1300     123.5113      0.00000
   1301     123.5367      0.00000
   1302     123.5444      0.00000
   1303     123.5478      0.00000
   1304     123.5478      0.00000
   1305     123.5492      0.00000
   1306     123.5492      0.00000
   1307     123.5533      0.00000
   1308     123.5542      0.00000
   1309     123.7602      0.00000
   1310     125.5136      0.00000
   1311     125.6647      0.00000
   1312     125.6647      0.00000
   1313     125.6814      0.00000
   1314     125.8559      0.00000
   1315     125.8864      0.00000
   1316     125.9096      0.00000
   1317     125.9096      0.00000
   1318     125.9158      0.00000
   1319     125.9158      0.00000
   1320     125.9314      0.00000
   1321     125.9853      0.00000
   1322     125.9918      0.00000
   1323     125.9918      0.00000
   1324     126.0057      0.00000
   1325     126.0098      0.00000
   1326     126.0138      0.00000
   1327     126.0249      0.00000
   1328     126.0249      0.00000
   1329     126.0463      0.00000
   1330     126.0518      0.00000
   1331     126.0518      0.00000
   1332     126.0703      0.00000
   1333     126.1017      0.00000
   1334     126.1036      0.00000
   1335     126.1304      0.00000
   1336     126.1312      0.00000
   1337     126.1312      0.00000
   1338     126.1319      0.00000
   1339     126.1344      0.00000
   1340     126.1344      0.00000
   1341     126.1354      0.00000
   1342     126.1354      0.00000
   1343     126.1383      0.00000
   1344     126.1397      0.00000
   1345     126.1397      0.00000
   1346     126.1415      0.00000
   1347     126.1520      0.00000
   1348     126.1521      0.00000
   1349     126.1617      0.00000
   1350     126.1715      0.00000
   1351     126.1715      0.00000
   1352     126.1982      0.00000
   1353     126.2216      0.00000
   1354     126.2380      0.00000
   1355     126.2481      0.00000
   1356     126.2481      0.00000
   1357     126.2569      0.00000
   1358     131.2622      0.00000
   1359     131.3044      0.00000
   1360     131.3044      0.00000
   1361     131.4468      0.00000
   1362     131.4468      0.00000
   1363     131.4578      0.00000
   1364     131.4693      0.00000
   1365     131.5344      0.00000
   1366     133.0024      0.00000
   1367     133.0705      0.00000
   1368     133.0705      0.00000
   1369     133.5202      0.00000
   1370     133.8317      0.00000
   1371     133.8904      0.00000
   1372     133.9250      0.00000
   1373     133.9574      0.00000
   1374     133.9574      0.00000
   1375     133.9703      0.00000
   1376     133.9703      0.00000
   1377     133.9869      0.00000
   1378     134.0132      0.00000
   1379     134.0608      0.00000
   1380     134.0744      0.00000
   1381     134.0744      0.00000
   1382     134.0807      0.00000
   1383     134.0896      0.00000
   1384     134.1008      0.00000
   1385     134.1008      0.00000
   1386     134.1034      0.00000
   1387     134.1050      0.00000
   1388     134.1272      0.00000
   1389     134.1272      0.00000
   1390     134.1745      0.00000
   1391     134.1789      0.00000
   1392     134.1789      0.00000
   1393     134.2024      0.00000
   1394     134.2052      0.00000
   1395     134.2363      0.00000
   1396     134.3232      0.00000
   1397     134.3720      0.00000
   1398     134.3745      0.00000
   1399     134.3745      0.00000
   1400     134.3756      0.00000
   1401     134.3782      0.00000
   1402     134.3782      0.00000
   1403     134.3853      0.00000
   1404     134.3854      0.00000
   1405     134.3937      0.00000
   1406     134.3937      0.00000
   1407     134.4461      0.00000
   1408     134.4552      0.00000
   1409     134.4611      0.00000
   1410     134.4701      0.00000
   1411     134.4701      0.00000
[...]
   6912     381.0148      0.00000
   6913     381.0148      0.00000
   6914     381.0148      0.00000
   6915     381.0185      0.00000
   6916     381.0245      0.00000
   6917     381.0266      0.00000
   6918     381.0274      0.00000
   6919     381.0274      0.00000
   6920     381.0278      0.00000
   6921     381.0291      0.00000
   6922     381.0329      0.00000
   6923     381.0329      0.00000
   6924     381.0422      0.00000
   6925     381.0422      0.00000
   6926     381.0429      0.00000
   6927     381.2790      0.00000
   6928     381.3033      0.00000
   6929     381.3439      0.00000
   6930     381.3439      0.00000
   6931     381.3740      0.00000
   6932     383.6079      0.00000
   6933     383.6767      0.00000
   6934     383.6767      0.00000
   6935     383.6823      0.00000
   6936     383.7196      0.00000
   6937     383.7196      0.00000
   6938     383.7216      0.00000
   6939     383.7226      0.00000
   6940     383.7231      0.00000
   6941     383.7253      0.00000
   6942     383.7253      0.00000
   6943     383.7273      0.00000
   6944     383.7273      0.00000
   6945     383.7297      0.00000
   6946     383.7297      0.00000
   6947     383.7299      0.00000
   6948     383.7305      0.00000
   6949     383.7305      0.00000
   6950     383.7313      0.00000
   6951     383.7316      0.00000
   6952     383.7327      0.00000
   6953     383.7329      0.00000
   6954     383.7329      0.00000
   6955     383.7347      0.00000
   6956     383.7347      0.00000
   6957     383.7377      0.00000
   6958     383.7385      0.00000
   6959     383.7398      0.00000
   6960     383.7411      0.00000
   6961     383.7411      0.00000
   6962     383.7415      0.00000
   6963     383.7417      0.00000
   6964     383.7435      0.00000
   6965     383.7435      0.00000
   6966     383.7470      0.00000
   6967     383.7504      0.00000
   6968     383.7507      0.00000
   6969     383.7507      0.00000
   6970     383.7528      0.00000
   6971     383.7534      0.00000
   6972     383.7540      0.00000
   6973     383.7547      0.00000
   6974     383.7547      0.00000
   6975     383.9556      0.00000
   6976     383.9621      0.00000
   6977     383.9925      0.00000
   6978     383.9925      0.00000
   6979     384.0216      0.00000
   6980     386.1931      0.00000
   6981     386.2383      0.00000
   6982     386.2383      0.00000
   6983     386.2698      0.00000
   6984     386.2801      0.00000
   6985     386.2844      0.00000
   6986     386.2844      0.00000
   6987     386.2895      0.00000
   6988     386.2918      0.00000
   6989     386.2918      0.00000
   6990     386.2923      0.00000
   6991     386.2939      0.00000
   6992     386.2994      0.00000
   6993     386.2994      0.00000
   6994     386.3073      0.00000
   6995     386.3095      0.00000
   6996     386.3209      0.00000
   6997     386.3368      0.00000
   6998     386.3605      0.00000
   6999     386.3606      0.00000
   7000     386.3906      0.00000
   7001     386.4023      0.00000
   7002     386.4075      0.00000
   7003     386.4075      0.00000
   7004     386.4208      0.00000
   7005     386.4208      0.00000
   7006     386.4385      0.00000
   7007     386.4515      0.00000
   7008     386.4575      0.00000
   7009     386.4578      0.00000
   7010     386.4645      0.00000
   7011     386.4645      0.00000
   7012     386.4653      0.00000
   7013     386.4667      0.00000
   7014     386.4667      0.00000
   7015     386.4709      0.00000
   7016     386.4710      0.00000
   7017     386.4710      0.00000
   7018     386.4738      0.00000
   7019     386.4791      0.00000
   7020     386.4792      0.00000
   7021     386.4805      0.00000
   7022     386.4807      0.00000
   7023     386.4808      0.00000
   7024     386.4808      0.00000
   7025     386.4827      0.00000
   7026     386.4827      0.00000
   7027     386.4858      0.00000
   7028     386.4868      0.00000
   7029     386.4868      0.00000
   7030     386.4882      0.00000
   7031     386.4929      0.00000
   7032     386.4992      0.00000
   7033     386.4992      0.00000
   7034     386.5003      0.00000
   7035     386.5116      0.00000
   7036     386.5116      0.00000
   7037     386.5122      0.00000
   7038     386.5130      0.00000
   7039     386.5151      0.00000
   7040     386.5162      0.00000
   7041     386.5162      0.00000
   7042     386.5170      0.00000
   7043     386.5199      0.00000
   7044     386.5199      0.00000
   7045     386.5212      0.00000
   7046     386.5299      0.00000
   7047     386.5508      0.00000
   7048     386.5511      0.00000
   7049     386.5524      0.00000
   7050     386.5524      0.00000
   7051     386.5536      0.00000
   7052     386.5536      0.00000
   7053     386.5558      0.00000
   7054     386.5558      0.00000
   7055     386.5703      0.00000
   7056     386.5787      0.00000
   7057     386.5787      0.00000
   7058     386.6100      0.00000
   7059     386.6119      0.00000
   7060     386.6323      0.00000
   7061     386.6323      0.00000
   7062     386.6414      0.00000
   7063     386.6498      0.00000
   7064     386.6515      0.00000
   7065     386.6515      0.00000
   7066     386.6522      0.00000
   7067     386.6540      0.00000
   7068     386.6565      0.00000
   7069     386.6565      0.00000
   7070     386.6583      0.00000
   7071     386.9404      0.00000
   7072     386.9404      0.00000
   7073     386.9993      0.00000
   7074     387.0777      0.00000
   7075     387.1714      0.00000
   7076     389.0109      0.00000
   7077     389.0267      0.00000
   7078     389.0267      0.00000
   7079     389.0268      0.00000
   7080     389.0269      0.00000
   7081     389.0269      0.00000
   7082     389.0279      0.00000
   7083     389.0279      0.00000
   7084     389.0326      0.00000
   7085     389.0326      0.00000
   7086     389.0368      0.00000
   7087     389.0467      0.00000
   7088     389.0540      0.00000
   7089     389.0682      0.00000
   7090     389.0682      0.00000
   7091     389.0832      0.00000
   7092     389.1213      0.00000
   7093     389.1358      0.00000
   7094     389.1358      0.00000
   7095     389.1550      0.00000
   7096     389.1641      0.00000
   7097     389.2083      0.00000
   7098     389.2645      0.00000
   7099     389.2645      0.00000
   7100     389.2902      0.00000
   7101     389.2907      0.00000
   7102     389.2907      0.00000
   7103     389.2913      0.00000
   7104     389.2914      0.00000
   7105     389.2922      0.00000
   7106     389.2924      0.00000
   7107     389.2924      0.00000
   7108     389.3654      0.00000
   7109     389.3654      0.00000
   7110     389.3728      0.00000
   7111     389.3822      0.00000
   7112     389.4067      0.00000
   7113     389.4067      0.00000
   7114     389.4069      0.00000
   7115     389.4071      0.00000
   7116     389.4071      0.00000
   7117     389.4082      0.00000
   7118     389.4097      0.00000
   7119     389.4171      0.00000
   7120     389.4980      0.00000
   7121     389.7145      0.00000
   7122     389.7145      0.00000
   7123     389.7764      0.00000
   7124     394.4954      0.00000
   7125     394.4954      0.00000
   7126     394.5038      0.00000
   7127     394.5559      0.00000
   7128     394.6327      0.00000
   7129     394.6518      0.00000
   7130     394.6707      0.00000
   7131     394.6707      0.00000
   7132     394.6793      0.00000
   7133     394.6862      0.00000
   7134     394.6877      0.00000
   7135     394.6905      0.00000
   7136     394.6905      0.00000
   7137     394.6923      0.00000
   7138     394.6935      0.00000
   7139     394.6935      0.00000
   7140     394.6966      0.00000
   7141     394.6981      0.00000
   7142     394.7014      0.00000
   7143     394.7014      0.00000
   7144     394.7014      0.00000
   7145     394.7049      0.00000
   7146     394.7077      0.00000
   7147     394.7077      0.00000
   7148     394.7109      0.00000
   7149     394.7391      0.00000
   7150     394.7948      0.00000
   7151     394.8983      0.00000
   7152     394.8983      0.00000
   7153     394.9138      0.00000
   7154     397.0991      0.00000
   7155     397.1184      0.00000
   7156     397.1185      0.00000
   7157     397.1487      0.00000
   7158     397.1708      0.00000
   7159     397.1813      0.00000
   7160     397.2196      0.00000
   7161     397.2196      0.00000
   7162     397.2306      0.00000
   7163     397.2382      0.00000
   7164     397.2556      0.00000
   7165     397.2620      0.00000
   7166     397.2750      0.00000
   7167     397.2750      0.00000
   7168     397.2793      0.00000
   7169     397.2793      0.00000
   7170     397.3661      0.00000
   7171     397.3883      0.00000
   7172     397.3890      0.00000
   7173     397.3975      0.00000
   7174     397.3975      0.00000
   7175     397.4036      0.00000
   7176     397.4089      0.00000
   7177     397.4089      0.00000
   7178     397.4114      0.00000
   7179     397.4186      0.00000
   7180     397.4223      0.00000
   7181     397.4223      0.00000
   7182     397.4225      0.00000
   7183     397.4251      0.00000
   7184     397.4251      0.00000
   7185     397.4252      0.00000
   7186     397.4284      0.00000
   7187     397.4327      0.00000
   7188     397.4328      0.00000
   7189     397.4328      0.00000
   7190     397.4341      0.00000
   7191     397.4341      0.00000
   7192     397.4358      0.00000
   7193     397.4358      0.00000
   7194     397.4361      0.00000
   7195     397.4367      0.00000
   7196     397.4374      0.00000
   7197     397.4376      0.00000
   7198     397.4424      0.00000
   7199     397.4593      0.00000
   7200     397.4617      0.00000
   7201     397.4633      0.00000
   7202     397.4633      0.00000
   7203     397.4661      0.00000
   7204     397.4661      0.00000
   7205     397.4670      0.00000
   7206     397.4670      0.00000
   7207     397.4673      0.00000
   7208     397.4680      0.00000
   7209     397.4680      0.00000
   7210     397.4682      0.00000
   7211     397.4713      0.00000
   7212     397.4725      0.00000
   7213     397.4725      0.00000
   7214     397.4734      0.00000
   7215     397.4792      0.00000
   7216     397.4792      0.00000
   7217     397.4827      0.00000
   7218     397.4827      0.00000
   7219     397.4844      0.00000
   7220     397.4848      0.00000
   7221     397.4848      0.00000
   7222     397.4848      0.00000
   7223     397.4926      0.00000
   7224     397.4926      0.00000
   7225     397.4974      0.00000
   7226     397.5015      0.00000
   7227     397.5074      0.00000
   7228     397.5076      0.00000
   7229     397.5076      0.00000
   7230     397.5077      0.00000
   7231     397.5401      0.00000
   7232     397.5401      0.00000
   7233     397.5726      0.00000
   7234     397.5884      0.00000
   7235     397.5884      0.00000
   7236     397.6050      0.00000
   7237     397.6202      0.00000
   7238     397.6228      0.00000
   7239     397.6228      0.00000
   7240     397.6237      0.00000
   7241     397.6551      0.00000
   7242     397.6822      0.00000
   7243     397.7887      0.00000
   7244     397.7887      0.00000
   7245     397.9828      0.00000
   7246     398.0396      0.00000
   7247     398.0396      0.00000
   7248     398.1732      0.00000
   7249     398.3761      0.00000
   7250   10000.0000      0.00000
   7251   10000.0000      0.00000
   7252   10000.0000      0.00000
   7253   10000.0000      0.00000
   7254   10000.0000      0.00000
   7255   10000.0000      0.00000
   7256   10000.0000      0.00000
   7257   10000.0000      0.00000
   7258   10000.0000      0.00000
   7259   10000.0000      0.00000
   7260   10000.0000      0.00000
   7261   10000.0000      0.00000
   7262   10000.0000      0.00000
   7263   10000.0000      0.00000
   7264   10000.0000      0.00000
   7265   10000.0000      0.00000
   7266   10000.0000      0.00000
   7267   10000.0000      0.00000
   7268   10000.0000      0.00000
   7269   10000.0000      0.00000
   7270   10000.0000      0.00000
   7271   10000.0000      0.00000
   7272   10000.0000      0.00000
   7273   10000.0000      0.00000
   7274   10000.0000      0.00000
   7275   10000.0000      0.00000
   7276   10000.0000      0.00000
   7277   10000.0000      0.00000
   7278   10000.0000      0.00000
   7279   10000.0000      0.00000
   7280   10000.0000      0.00000
   7281   10000.0000      0.00000
   7282   10000.0000      0.00000
   7283   10000.0000      0.00000
   7284   10000.0000      0.00000
   7285   10000.0000      0.00000
   7286   10000.0000      0.00000
   7287   10000.0000      0.00000
   7288   10000.0000      0.00000
   7289   10000.0000      0.00000
   7290   10000.0000      0.00000
   7291   10000.0000      0.00000
   7292   10000.0000      0.00000
   7293   10000.0000      0.00000
   7294   10000.0000      0.00000
   7295   10000.0000      0.00000
   7296   10000.0000      0.00000


--------------------------------------------------------------------------------------------------------


 soft charge-density along one line, spin component           1
         0         1         2         3         4         5         6         7         8         9
 total charge-density along one line
 
 pseudopotential strength for first ion, spin component:           1
  0.613  -3.123   0.000  -0.030   0.000  -0.000   0.103  -0.000
 -3.123  16.834  -0.000   0.086  -0.000   0.000  -0.410   0.000
  0.000  -0.000  -4.241  -0.000  -0.000   8.091  -0.000  -0.000
 -0.030   0.086  -0.000  -4.236  -0.000  -0.000   8.101  -0.000
  0.000  -0.000  -0.000  -0.000  -4.241  -0.000  -0.000   8.091
 -0.000   0.000   8.091  -0.000  -0.000 -42.571   0.000   0.000
  0.103  -0.410  -0.000   8.101  -0.000   0.000 -42.623   0.000
 -0.000   0.000  -0.000  -0.000   8.091   0.000   0.000 -42.571
  0.000  -0.000  -0.000  -0.000  -0.000  -0.000  -0.000  -0.000
  0.000  -0.000   0.004  -0.000  -0.000   0.024  -0.000  -0.000
 -0.002   0.004   0.000   0.005   0.000   0.000   0.028   0.000
  0.000  -0.000  -0.000  -0.000   0.004  -0.000  -0.000   0.024
 -0.000   0.000   0.000  -0.000  -0.000   0.000  -0.000  -0.000
 total augmentation occupancy for first ion, spin component:           1
  1.083   0.030  -0.000   0.392  -0.000  -0.000   0.019  -0.000  -0.000  -0.000   0.154  -0.000  -0.000
  0.030   0.001  -0.000   0.011  -0.000  -0.000   0.001  -0.000  -0.000  -0.000   0.004  -0.000  -0.000
 -0.000  -0.000   0.000  -0.000   0.000   0.000  -0.000   0.000   0.000   0.000  -0.000   0.000   0.000
  0.392   0.011  -0.000   0.142  -0.000  -0.000   0.007  -0.000  -0.000  -0.000   0.056  -0.000  -0.000
 -0.000  -0.000   0.000  -0.000   0.000   0.000  -0.000   0.000   0.000   0.000  -0.000   0.000   0.000
 -0.000  -0.000   0.000  -0.000   0.000   0.000  -0.000   0.000   0.000   0.000  -0.000   0.000   0.000
  0.019   0.001  -0.000   0.007  -0.000  -0.000   0.000  -0.000  -0.000  -0.000   0.003  -0.000  -0.000
 -0.000  -0.000   0.000  -0.000   0.000   0.000  -0.000   0.000   0.000   0.000  -0.000   0.000   0.000
 -0.000  -0.000   0.000  -0.000   0.000   0.000  -0.000   0.000   0.000   0.000  -0.000   0.000   0.000
 -0.000  -0.000   0.000  -0.000   0.000   0.000  -0.000   0.000   0.000   0.000  -0.000   0.000   0.000
  0.154   0.004  -0.000   0.056  -0.000  -0.000   0.003  -0.000  -0.000  -0.000   0.022  -0.000  -0.000
 -0.000  -0.000   0.000  -0.000   0.000   0.000  -0.000   0.000   0.000   0.000  -0.000   0.000   0.000
 -0.000  -0.000   0.000  -0.000   0.000   0.000  -0.000   0.000   0.000   0.000  -0.000   0.000   0.000


------------------------ aborting loop because EDIFF is reached ----------------------------------------


    CHARGE:  cpu time      0.0054: real time      0.0054
    FORLOC:  cpu time      0.0006: real time      0.0006
    FORHF :  cpu time      0.0396: real time      0.0399
    FORNL :  cpu time      0.0529: real time      0.0531
    FORCOR:  cpu time      0.0102: real time      0.0103
    FORHAR:  cpu time      0.0025: real time      0.0026
    MIXING:  cpu time      0.0001: real time      0.0001
    OFIELD:  cpu time      0.0001: real time      0.0001

 VOLUME and BASIS-vectors are now :
 -----------------------------------------------------------------------------
  energy-cutoff  :      400.00
  volume of cell :      406.54
      direct lattice vectors                 reciprocal lattice vectors
     7.408002056  0.000000000  0.000000000     0.134989163  0.000000000  0.000000000
     0.000000000  7.408002056  0.000000000     0.000000000  0.134989163  0.000000000
     0.000000000  0.000000000  7.408002056     0.000000000  0.000000000  0.134989163

  length of vectors
     7.408002056  7.408002056  7.408002056     0.134989163  0.134989163  0.134989163


 FORCES acting on ions
    electron-ion (+dipol)            ewald-force                    non-local-force                 convergence-correction
 -----------------------------------------------------------------------------------------------
   -.270E-10 -.145E-09 0.619E+01   0.460E-17 0.361E-17 -.520E+01   0.228E-10 0.111E-09 -.110E+01   -.168E-10 -.826E-10 -.573E-04
   -.661E-10 -.362E-09 -.411E+01   -.286E-17 -.210E-17 0.520E+01   -.265E-11 -.149E-10 -.853E+00   -.876E-10 -.425E-09 0.922E-05
 -----------------------------------------------------------------------------------------------
   -.931E-10 -.507E-09 0.208E+01   0.174E-17 0.151E-17 0.000E+00   0.201E-10 0.965E-10 -.195E+01   -.104E-09 -.508E-09 -.480E-04
 
 
 POSITION                                       TOTAL-FORCE (eV/Angst)
 -----------------------------------------------------------------------------------
      0.00000      0.00000      0.00000         0.000000      0.000000     -0.172608
      0.00000      0.00000      1.62106        -0.000000     -0.000000      0.172608
 -----------------------------------------------------------------------------------
    total drift:                               -0.000000     -0.000000     -0.000124


--------------------------------------------------------------------------------------------------------



  FREE ENERGIE OF THE ION-ELECTRON SYSTEM (eV)
  ---------------------------------------------------
  free  energy   TOTEN  =        -7.55478430 eV

  energy  without entropy=       -7.55478430  energy(sigma->0) =       -7.55478430
 


--------------------------------------------------------------------------------------------------------


    POTLOK:  cpu time      0.0126: real time      0.0127


--------------------------------------------------------------------------------------------------------


 writing wavefunctions
     LOOP+:  cpu time     61.4742: real time     61.9868
    4ORBIT:  cpu time      0.0000: real time      0.0000

 total amount of memory used by VASP MPI-rank0   185448. kBytes
=======================================================================

   base      :      30000. kBytes
   nonl-proj :        875. kBytes
   fftplans  :       1099. kBytes
   grid      :       5508. kBytes
   one-center:          8. kBytes
   HF        :         67. kBytes
   nonlr-proj:        369. kBytes
   wavefun   :       8930. kBytes
   fock_wrk  :     138592. kBytes
 
  
  
 General timing and accounting informations for this job:
 ========================================================
  
                  Total CPU time used (sec):       66.942
                            User time (sec):       65.104
                          System time (sec):        1.838
                         Elapsed time (sec):       67.663
  
                   Maximum memory used (kb):     1113952.
                   Average memory used (kb):          N/A
  
                          Minor page faults:       423016
                          Major page faults:         6420
                 Voluntary context switches:         2294
