 vasp.6.3.0 20Jan22 (build Mar 06 2023 08:06:32) gamma-only                     
  
 executed on             LinuxIFC date 2025.05.22  11:34:36
 running on    1 total cores
 distrk:  each k-point on    1 cores,    1 groups
 distr:  one band on NCORE=   1 cores,    1 groups


--------------------------------------------------------------------------------------------------------


 INCAR:
   ENCUT = 400
   EDIFF = 1E-6
   ISYM = -1
   PREC = Accurate

 POTCAR:    PAW_PBE Li_GW 23Jun2021               
 POTCAR:    PAW_PBE H_GW 21Apr2008                
 POTCAR:    PAW_PBE Li_GW 23Jun2021               
   SHA256 =  8825fb35c7e4969bc2ee643901f25156348bca79849b21eacd5f3f060d4d23e8 Li_GW/POTCAR          
   COPYR  = (c) Copyright 23Jun2021 Georg Kresse                                                    
   COPYR  = This file is part of the software VASP. Any use, copying, and all other rights are regul
   COPYR  = If you do not have a valid VASP license, you may not use, copy or distribute this file. 
   VRHFIN =Li: s1p0                                                                                 
   LEXCH  = PE                                                                                      
   EATOM  =     5.3001 eV,    0.3895 Ry                                                             
                                                                                                    
   TITEL  = PAW_PBE Li_GW 23Jun2021                                                                 
   LULTRA =        F    use ultrasoft PP ?                                                          
   IUNSCR =        1    unscreen: 0-lin 1-nonlin 2-no                                               
   RPACOR =    1.500    partial core radius                                                         
   POMASS =    7.010; ZVAL   =    1.000    mass and valenz                                          
   RCORE  =    2.100    outmost cutoff radius                                                       
   RWIGS  =    2.600; RWIGS  =    1.376    wigner-seitz radius (au A)                               
   ENMAX  =  112.104; ENMIN  =   84.078 eV                                                          
   RCLOC  =    2.012    cutoff for local pot                                                        
   LCOR   =        T    correct aug charges                                                         
   LPAW   =        T    paw PP                                                                      
   EAUG   =  483.286                                                                                
   DEXC   =   -0.000                                                                                
   RMAX   =    2.149    core radius for proj-oper                                                   
   RAUG   =    1.300    factor for augmentation sphere                                              
   RDEP   =    2.232    radius for radial grids                                                     
   RDEPT  =    1.854    core radius for aug-charge                                                  
                                                                                                    
   Atomic configuration                                                                             
    4 entries                                                                                       
     n  l   j            E        occ.                                                              
     1  0  0.50       -51.8549   2.0000                                                             
     2  0  0.50        -2.8742   1.0000                                                             
     2  1  0.50        -2.8708   0.0000                                                             
     3  2  1.50        -1.3606   0.0000                                                             
   Description                                                                                      
     l       E           TYP  RCUT    TYP  RCUT                                                     
     0     -2.8742051     23  2.100                                                                 
     0     54.4233040     23  2.100                                                                 
     1     -2.8708293     23  2.050                                                                 
     1     54.4233040     23  2.050                                                                 
     2     -1.3605826     23  2.050                                                                 
  local pseudopotential read in
  partial core-charges read in
  partial kinetic energy density read in
  kinetic energy density of atom read in
  atomic valenz-charges read in
  non local Contribution for L=           0  read in
    real space projection operators read in
  non local Contribution for L=           0  read in
    real space projection operators read in
  non local Contribution for L=           1  read in
    real space projection operators read in
  non local Contribution for L=           1  read in
    real space projection operators read in
  non local Contribution for L=           2  read in
    real space projection operators read in
    PAW grid and wavefunctions read in
 
   number of l-projection  operators is LMAX  =           5
   number of lm-projection operators is LMMAX =          13
 
 POTCAR:    PAW_PBE H_GW 21Apr2008                
   SHA256 =  cecc88617a3d1ece9865646f5d462fc0f44fd1f68d6f2eb08f18a2e421902afb H_GW/POTCAR           
   COPYR  = (c) Copyright 21Apr2008 Georg Kresse                                                    
   COPYR  = This file is part of the software VASP. Any use, copying, and all other rights are regul
   COPYR  = If you do not have a valid VASP license, you may not use, copy or distribute this file. 
   VRHFIN =H: ultrasoft test                                                                        
   LEXCH  = PE                                                                                      
   EATOM  =    12.4884 eV,    0.9179 Ry                                                             
                                                                                                    
   TITEL  = PAW_PBE H_GW 21Apr2008                                                                  
   LULTRA =        F    use ultrasoft PP ?                                                          
   IUNSCR =        0    unscreen: 0-lin 1-nonlin 2-no                                               
   RPACOR =    0.000    partial core radius                                                         
   POMASS =    1.000; ZVAL   =    1.000    mass and valenz                                          
   RCORE  =    1.100    outmost cutoff radius                                                       
   RWIGS  =    1.100; RWIGS  =    0.582    wigner-seitz radius (au A)                               
   ENMAX  =  300.000; ENMIN  =  250.000 eV                                                          
   RCLOC  =    0.701    cutoff for local pot                                                        
   LCOR   =        T    correct aug charges                                                         
   LPAW   =        T    paw PP                                                                      
   EAUG   =  500.000                                                                                
   RMAX   =    1.123    core radius for proj-oper                                                   
   RAUG   =    1.200    factor for augmentation sphere                                              
   RDEP   =    1.112    radius for radial grids                                                     
   RDEPT  =    1.100    core radius for aug-charge                                                  
                                                                                                    
   Atomic configuration                                                                             
    3 entries                                                                                       
     n  l   j            E        occ.                                                              
     1  0  0.50        -6.4927   1.0000                                                             
     2  1  0.50        -3.4015   0.0000                                                             
     3  2  1.50        13.6058   0.0000                                                             
   Description                                                                                      
     l       E           TYP  RCUT    TYP  RCUT                                                     
     0     -6.4927495     23  0.950                                                                 
     0      6.8029130     23  0.950                                                                 
     1     -4.0817478     23  1.100                                                                 
     1    108.8466080     23  1.100                                                                 
     2     81.6349560     23  1.100                                                                 
  local pseudopotential read in
  kinetic energy density of atom read in
  atomic valenz-charges read in
  non local Contribution for L=           0  read in
    real space projection operators read in
  non local Contribution for L=           0  read in
    real space projection operators read in
  non local Contribution for L=           1  read in
    real space projection operators read in
  non local Contribution for L=           1  read in
    real space projection operators read in
  non local Contribution for L=           2  read in
    real space projection operators read in
    PAW grid and wavefunctions read in
 
   number of l-projection  operators is LMAX  =           5
   number of lm-projection operators is LMMAX =          13
 
  PAW_PBE Li_GW 23Jun2021               :
 energy of atom  1       EATOM=   -5.3001
 kinetic energy error for atom=    0.0000 (will be added to EATOM!!)
  PAW_PBE H_GW 21Apr2008                :
 energy of atom  2       EATOM=  -12.4884
 kinetic energy error for atom=    0.0317 (will be added to EATOM!!)
 
 
 POSCAR: LiH
  positions in cartesian coordinates
  No initial velocities read in
 exchange correlation table for  LEXCH =        8
   RHO(1)=    0.500       N(1)  =     2000
   RHO(2)=  100.500       N(2)  =     4000
 


--------------------------------------------------------------------------------------------------------


 ion  position               nearest neighbor table
   1  0.000  0.000  0.000-   2 1.62
   2  0.000  0.000  0.306-   1 1.62
 

IMPORTANT INFORMATION: All symmetrisations will be switched off!
NOSYMM: (Re-)initialisation of all symmetry stuff for point group C_1.


----------------------------------------------------------------------------------------

                                     Primitive cell                                     

  volume of cell :     148.2000

  direct lattice vectors                    reciprocal lattice vectors
     5.291954090  0.000000000  0.000000000     0.188966114  0.000000000  0.000000000
     0.000000000  5.291954090  0.000000000     0.000000000  0.188966114  0.000000000
     0.000000000  0.000000000  5.291954090     0.000000000  0.000000000  0.188966114

  length of vectors
     5.291954090  5.291954090  5.291954090     0.188966114  0.188966114  0.188966114

  position of ions in fractional coordinates (direct lattice)
     0.000000000  0.000000000  0.000000000
     0.000000000  0.000000000  0.306325966

  ion indices of the primitive-cell ions
   primitive index   ion index
                 1           1
                 2           2

----------------------------------------------------------------------------------------

 
 
 KPOINTS: Automatically generated mesh            

Automatic generation of k-mesh.
 Grid dimensions read from file:
 generate k-points for:    1    1    1

 Generating k-lattice:

  Cartesian coordinates                     Fractional coordinates (reciprocal lattice)
     0.188966114  0.000000000  0.000000000     1.000000000  0.000000000  0.000000000
     0.000000000  0.188966114  0.000000000     0.000000000  1.000000000  0.000000000
     0.000000000  0.000000000  0.188966114     0.000000000  0.000000000  1.000000000

  Length of vectors
     0.188966114  0.188966114  0.188966114

  Shift w.r.t. Gamma in fractional coordinates (k-lattice)
     0.000000000  0.000000000  0.000000000

 
 Subroutine IBZKPT returns following result:
 ===========================================
 
 Found      1 irreducible k-points:
 
 Following reciprocal coordinates:
            Coordinates               Weight
  0.000000  0.000000  0.000000      1.000000
 
 Following cartesian coordinates:
            Coordinates               Weight
  0.000000  0.000000  0.000000      1.000000
 


--------------------------------------------------------------------------------------------------------




 Dimension of arrays:
   k-points           NKPTS =      1   k-points in BZ     NKDIM =      1   number of bands    NBANDS=      5
   number of dos      NEDOS =    301   number of ions     NIONS =      2
   non local maximal  LDIM  =      5   non local SUM 2l+1 LMDIM =     13
   total plane-waves  NPLWV =  46656
   max r-space proj   IRMAX =      1   max aug-charges    IRDMAX=  12404
   dimension x,y,z NGX =    36 NGY =   36 NGZ =   36
   dimension x,y,z NGXF=    72 NGYF=   72 NGZF=   72
   support grid    NGXF=    72 NGYF=   72 NGZF=   72
   ions per type =               1   1
   NGX,Y,Z   is equivalent  to a cutoff of  11.31, 11.31, 11.31 a.u.
   NGXF,Y,Z  is equivalent  to a cutoff of  22.62, 22.62, 22.62 a.u.

 SYSTEM =  unknown system                          
 POSCAR =  LiH                                     

 Startparameter for this run:
   NWRITE =      2    write-flag & timer
   PREC   = accura    normal or accurate (medium, high low for compatibility)
   ISTART =      0    job   : 0-new  1-cont  2-samecut
   ICHARG =      2    charge: 1-file 2-atom 10-const
   ISPIN  =      1    spin polarized calculation?
   LNONCOLLINEAR =      F non collinear calculations
   LSORBIT =      F    spin-orbit coupling
   INIWAV =      1    electr: 0-lowe 1-rand  2-diag
   LASPH  =      F    aspherical Exc in radial PAW
 Electronic Relaxation 1
   ENCUT  =  400.0 eV  29.40 Ry    5.42 a.u.   8.63  8.63  8.63*2*pi/ulx,y,z
   ENINI  =  400.0     initial cutoff
   ENAUG  =  500.0 eV  augmentation charge cutoff
   NELM   =     60;   NELMIN=  2; NELMDL= -5     # of ELM steps 
   EDIFF  = 0.1E-05   stopping-criterion for ELM
   LREAL  =      F    real-space projection
   NLSPLINE    = F    spline interpolate recip. space projectors
   LCOMPAT=      F    compatible to vasp.4.4
   GGA_COMPAT  = T    GGA compatible to vasp.4.4-vasp.4.6
   LMAXPAW     = -100 max onsite density
   LMAXMIX     =    2 max onsite mixed and CHGCAR
   VOSKOWN=      0    Vosko Wilk Nusair interpolation
   ROPT   =    0.00000   0.00000
 Ionic relaxation
   EDIFFG = 0.1E-04   stopping-criterion for IOM
   NSW    =      0    number of steps for IOM
   NBLOCK =      1;   KBLOCK =      1    inner block; outer block 
   IBRION =     -1    ionic relax: 0-MD 1-quasi-New 2-CG
   NFREE  =      0    steps in history (QN), initial steepest desc. (CG)
   ISIF   =      2    stress and relaxation
   IWAVPR =     10    prediction:  0-non 1-charg 2-wave 3-comb
   ISYM   =     -1    0-nonsym 1-usesym 2-fastsym
   LCORR  =      T    Harris-Foulkes like correction to forces

   POTIM  = 0.5000    time-step for ionic-motion
   TEIN   =    0.0    initial temperature
   TEBEG  =    0.0;   TEEND  =   0.0 temperature during run
   SMASS  =  -3.00    Nose mass-parameter (am)
   estimated Nose-frequenzy (Omega)   =  0.10E-29 period in steps = 0.13E+47 mass=  -0.640E-27a.u.
   SCALEE = 1.0000    scale energy and forces
   NPACO  =    256;   APACO  = 10.0  distance and # of slots for P.C.
   PSTRESS=    0.0 pullay stress

  Mass of Ions in am
   POMASS =   7.01  1.00
  Ionic Valenz
   ZVAL   =   1.00  1.00
  Atomic Wigner-Seitz radii
   RWIGS  =  -1.00 -1.00
  virtual crystal weights 
   VCA    =   1.00  1.00
   NELECT =       2.0000    total number of electrons
   NUPDOWN=      -1.0000    fix difference up-down

 DOS related values:
   EMIN   =  10.00;   EMAX   =-10.00  energy-range for DOS
   EFERMI =   0.00
   ISMEAR =     1;   SIGMA  =   0.20  broadening in eV -4-tet -1-fermi 0-gaus

 Electronic relaxation 2 (details)
   IALGO  =     38    algorithm
   LDIAG  =      T    sub-space diagonalisation (order eigenvalues)
   LSUBROT=      F    optimize rotation matrix (better conditioning)
   TURBO    =      0    0=normal 1=particle mesh
   IRESTART =      0    0=no restart 2=restart with 2 vectors
   NREBOOT  =      0    no. of reboots
   NMIN     =      0    reboot dimension
   EREF     =   0.00    reference energy to select bands
   IMIX   =      4    mixing-type and parameters
     AMIX     =   0.40;   BMIX     =  1.00
     AMIX_MAG =   1.60;   BMIX_MAG =  1.00
     AMIN     =   0.10
     WC   =   100.;   INIMIX=   1;  MIXPRE=   1;  MAXMIX= -45

 Intra band minimization:
   WEIMIN = 0.0000     energy-eigenvalue tresh-hold
   EBREAK =  0.50E-07  absolut break condition
   DEPER  =   0.30     relativ break condition  

   TIME   =   0.40     timestep for ELM

  volume/ion in A,a.u.               =      74.10       500.05
  Fermi-wavevector in a.u.,A,eV,Ry     =   0.389764  0.736548  2.066946  0.151916
  Thomas-Fermi vector in A             =   1.331236
 
 Write flags
   LWAVE        =      T    write WAVECAR
   LDOWNSAMPLE  =      F    k-point downsampling of WAVECAR
   LCHARG       =      T    write CHGCAR
   LVTOT        =      F    write LOCPOT, total local potential
   LVHAR        =      F    write LOCPOT, Hartree potential only
   LELF         =      F    write electronic localiz. function (ELF)
   LORBIT       =      0    0 simple, 1 ext, 2 COOP (PROOUT), +10 PAW based schemes


 Dipole corrections
   LMONO  =      F    monopole corrections only (constant potential shift)
   LDIPOL =      F    correct potential (dipole corrections)
   IDIPOL =      0    1-x, 2-y, 3-z, 4-all directions 
   EPSILON=  1.0000000 bulk dielectric constant

 Exchange correlation treatment:
   GGA     =    --    GGA type
   LEXCH   =     8    internal setting for exchange type
   LIBXC   =     F    Libxc                    
   VOSKOWN =     0    Vosko Wilk Nusair interpolation
   LHFCALC =     F    Hartree Fock is set to
   LHFONE  =     F    Hartree Fock one center treatment
   AEXX    =    0.0000 exact exchange contribution

 Linear response parameters
   LEPSILON=     F    determine dielectric tensor
   LRPA    =     F    only Hartree local field effects (RPA)
   LNABLA  =     F    use nabla operator in PAW spheres
   LVEL    =     F    velocity operator in full k-point grid
   CSHIFT  =0.1000    complex shift for real part using Kramers Kronig
   OMEGAMAX=  -1.0    maximum frequency
   DEG_THRESHOLD= 0.2000000E-02 threshold for treating states as degnerate
   RTIME   =   -0.100 relaxation time in fs
  (WPLASMAI=    0.000 imaginary part of plasma frequency in eV, 0.658/RTIME)
   DFIELD  = 0.0000000 0.0000000 0.0000000 field for delta impulse in time
 
  Optional k-point grid parameters
   LKPOINTS_OPT  =     F    use optional k-point grid
   KPOINTS_OPT_MODE=     1    mode for optional k-point grid
 
 Orbital magnetization related:
   ORBITALMAG=     F  switch on orbital magnetization
   LCHIMAG   =     F  perturbation theory with respect to B field
   DQ        =  0.001000  dq finite difference perturbation B field
   LLRAUG    =     F  two centre corrections for induced B field



--------------------------------------------------------------------------------------------------------


 Static calculation
 charge density and potential will be updated during run
 non-spin polarized calculation
 Variant of blocked Davidson
 Davidson routine will perform the subspace rotation
 perform sub-space diagonalisation
    after iterative eigenvector-optimisation
 modified Broyden-mixing scheme, WC =      100.0
 initial mixing is a Kerker type mixing with AMIX =  0.4000 and BMIX =      1.0000
 Hartree-type preconditioning will be used
 using additional bands            4
 reciprocal scheme for non local part
 use partial core corrections
 calculate Harris-corrections to forces 
   (improved forces if not selfconsistent)
 use gradient corrections 
 use of overlap-Matrix (Vanderbilt PP)
 Methfessel and Paxton  Order N= 1 SIGMA  =   0.20


--------------------------------------------------------------------------------------------------------


  energy-cutoff  :      400.00
  volume of cell :      148.20
      direct lattice vectors                 reciprocal lattice vectors
     5.291954090  0.000000000  0.000000000     0.188966114  0.000000000  0.000000000
     0.000000000  5.291954090  0.000000000     0.000000000  0.188966114  0.000000000
     0.000000000  0.000000000  5.291954090     0.000000000  0.000000000  0.188966114

  length of vectors
     5.291954090  5.291954090  5.291954090     0.188966114  0.188966114  0.188966114


 
 k-points in units of 2pi/SCALE and weight: Automatically generated mesh            
   0.00000000  0.00000000  0.00000000       1.000
 
 k-points in reciprocal lattice and weights: Automatically generated mesh            
   0.00000000  0.00000000  0.00000000       1.000
 
 position of ions in fractional coordinates (direct lattice) 
   0.00000000  0.00000000  0.00000000
   0.00000000  0.00000000  0.30632597
 
 position of ions in cartesian coordinates  (Angst):
   0.00000000  0.00000000  0.00000000
   0.00000000  0.00000000  1.62106295
 


--------------------------------------------------------------------------------------------------------


 use serial FFT for orbitals x direction half grid
 k-point   1 :   0.0000 0.0000 0.0000  plane waves:    1361

 maximum and minimum number of plane-waves per node :      1361     1361

 maximum number of plane-waves:      1361
 maximum index in each direction: 
   IXMAX=    8   IYMAX=    8   IZMAX=    8
   IXMIN=    0   IYMIN=   -8   IZMIN=   -8


 serial   3D FFT for wavefunctions
 parallel 3D FFT for charge:
    minimum data exchange during FFTs selected (reduces bandwidth)


 total amount of memory used by VASP MPI-rank0    66706. kBytes
=======================================================================

   base      :      30000. kBytes
   nonl-proj :        326. kBytes
   fftplans  :      13060. kBytes
   grid      :      23203. kBytes
   one-center:          8. kBytes
   wavefun   :        109. kBytes
 
     INWAV:  cpu time      0.0000: real time      0.0000
 Broyden mixing: mesh for mixing (old mesh)
   NGX = 17   NGY = 17   NGZ = 17
  (NGX  = 72   NGY  = 72   NGZ  = 72)
  gives a total of   4913 points

 initial charge density was supplied:
 charge density of overlapping atoms calculated
 number of electron       2.0000000 magnetization 
 keeping initial charge density in first step


--------------------------------------------------------------------------------------------------------


 Maximum index for augmentation-charges        11753 (set IRDMAX)


--------------------------------------------------------------------------------------------------------


 First call to EWALD:  gamma=   0.335
 Maximum number of real-space cells 3x 3x 3
 Maximum number of reciprocal cells 3x 3x 3

    FEWALD:  cpu time      0.0011: real time      0.0011


--------------------------------------- Iteration      1(   1)  ---------------------------------------


    POTLOK:  cpu time      0.1180: real time      0.1185
    SETDIJ:  cpu time      0.0034: real time      0.0034
     EDDAV:  cpu time      0.0133: real time      0.0136
       DOS:  cpu time      0.0001: real time      0.0001
    --------------------------------------------
      LOOP:  cpu time      0.1348: real time      0.1356

 eigenvalue-minimisations  :    10
 total energy-change (2. order) :-0.1949972E+01  (-0.2332552E+02)
 number of electron       2.0000000 magnetization 
 augmentation part        2.0000000 magnetization 

 Free energy of the ion-electron system (eV)
  ---------------------------------------------------
  alpha Z        PSCENC =         0.60322170
  Ewald energy   TEWEN  =        -5.94680929
  -Hartree energ DENC   =        -5.27275172
  -exchange      EXHF   =         0.00000000
  -V(xc)+E(xc)   XCENC  =        -2.69350213
  PAW double counting   =         9.79557496       -4.24713221
  entropy T*S    EENTRO =         0.01159581
  eigenvalues    EBANDS =       -11.95696602
  atomic energy  EATOM  =        17.75679653
  Solvation  Ediel_sol  =         0.00000000
  ---------------------------------------------------
  free energy    TOTEN  =        -1.94997238 eV

  energy without entropy =       -1.96156819  energy(sigma->0) =       -1.95383765


--------------------------------------------------------------------------------------------------------




--------------------------------------- Iteration      1(   2)  ---------------------------------------


     EDDAV:  cpu time      0.0109: real time      0.0109
       DOS:  cpu time      0.0001: real time      0.0001
    --------------------------------------------
      LOOP:  cpu time      0.0109: real time      0.0110

 eigenvalue-minimisations  :    10
 total energy-change (2. order) :-0.3591499E+01  (-0.3591499E+01)
 number of electron       2.0000000 magnetization 
 augmentation part        2.0000000 magnetization 

 Free energy of the ion-electron system (eV)
  ---------------------------------------------------
  alpha Z        PSCENC =         0.60322170
  Ewald energy   TEWEN  =        -5.94680929
  -Hartree energ DENC   =        -5.27275172
  -exchange      EXHF   =         0.00000000
  -V(xc)+E(xc)   XCENC  =        -2.69350213
  PAW double counting   =         9.79557496       -4.24713221
  entropy T*S    EENTRO =         0.01159581
  eigenvalues    EBANDS =       -15.54846470
  atomic energy  EATOM  =        17.75679653
  Solvation  Ediel_sol  =         0.00000000
  ---------------------------------------------------
  free energy    TOTEN  =        -5.54147106 eV

  energy without entropy =       -5.55306687  energy(sigma->0) =       -5.54533633


--------------------------------------------------------------------------------------------------------




--------------------------------------- Iteration      1(   3)  ---------------------------------------


     EDDAV:  cpu time      0.0182: real time      0.0183
       DOS:  cpu time      0.0001: real time      0.0001
    --------------------------------------------
      LOOP:  cpu time      0.0183: real time      0.0184

 eigenvalue-minimisations  :    20
 total energy-change (2. order) :-0.9290208E-01  (-0.9290208E-01)
 number of electron       2.0000000 magnetization 
 augmentation part        2.0000000 magnetization 

 Free energy of the ion-electron system (eV)
  ---------------------------------------------------
  alpha Z        PSCENC =         0.60322170
  Ewald energy   TEWEN  =        -5.94680929
  -Hartree energ DENC   =        -5.27275172
  -exchange      EXHF   =         0.00000000
  -V(xc)+E(xc)   XCENC  =        -2.69350213
  PAW double counting   =         9.79557496       -4.24713221
  entropy T*S    EENTRO =         0.01159581
  eigenvalues    EBANDS =       -15.64136678
  atomic energy  EATOM  =        17.75679653
  Solvation  Ediel_sol  =         0.00000000
  ---------------------------------------------------
  free energy    TOTEN  =        -5.63437314 eV

  energy without entropy =       -5.64596895  energy(sigma->0) =       -5.63823841


--------------------------------------------------------------------------------------------------------




--------------------------------------- Iteration      1(   4)  ---------------------------------------


     EDDAV:  cpu time      0.0107: real time      0.0108
       DOS:  cpu time      0.0001: real time      0.0001
    --------------------------------------------
      LOOP:  cpu time      0.0108: real time      0.0108

 eigenvalue-minimisations  :    10
 total energy-change (2. order) :-0.2733544E-04  (-0.2733523E-04)
 number of electron       2.0000000 magnetization 
 augmentation part        2.0000000 magnetization 

 Free energy of the ion-electron system (eV)
  ---------------------------------------------------
  alpha Z        PSCENC =         0.60322170
  Ewald energy   TEWEN  =        -5.94680929
  -Hartree energ DENC   =        -5.27275172
  -exchange      EXHF   =         0.00000000
  -V(xc)+E(xc)   XCENC  =        -2.69350213
  PAW double counting   =         9.79557496       -4.24713221
  entropy T*S    EENTRO =         0.01159581
  eigenvalues    EBANDS =       -15.64139412
  atomic energy  EATOM  =        17.75679653
  Solvation  Ediel_sol  =         0.00000000
  ---------------------------------------------------
  free energy    TOTEN  =        -5.63440048 eV

  energy without entropy =       -5.64599629  energy(sigma->0) =       -5.63826575


--------------------------------------------------------------------------------------------------------




--------------------------------------- Iteration      1(   5)  ---------------------------------------


     EDDAV:  cpu time      0.0107: real time      0.0108
       DOS:  cpu time      0.0001: real time      0.0001
    CHARGE:  cpu time      0.0062: real time      0.0062
    MIXING:  cpu time      0.0040: real time      0.0041
    --------------------------------------------
      LOOP:  cpu time      0.0210: real time      0.0211

 eigenvalue-minimisations  :    10
 total energy-change (2. order) :-0.9454221E-07  (-0.9492626E-07)
 number of electron       2.0000000 magnetization 
 augmentation part        0.0185376 magnetization 

 Broyden mixing:
  rms(total) = 0.42808E+00    rms(broyden)= 0.42807E+00
  rms(prec ) = 0.10788E+01
  weight for this iteration     100.00

 Free energy of the ion-electron system (eV)
  ---------------------------------------------------
  alpha Z        PSCENC =         0.60322170
  Ewald energy   TEWEN  =        -5.94680929
  -Hartree energ DENC   =        -5.27275172
  -exchange      EXHF   =         0.00000000
  -V(xc)+E(xc)   XCENC  =        -2.69350213
  PAW double counting   =         9.79557496       -4.24713221
  entropy T*S    EENTRO =         0.01159581
  eigenvalues    EBANDS =       -15.64139421
  atomic energy  EATOM  =        17.75679653
  Solvation  Ediel_sol  =         0.00000000
  ---------------------------------------------------
  free energy    TOTEN  =        -5.63440057 eV

  energy without entropy =       -5.64599638  energy(sigma->0) =       -5.63826584


--------------------------------------------------------------------------------------------------------




--------------------------------------- Iteration      1(   6)  ---------------------------------------


    POTLOK:  cpu time      0.1171: real time      0.1175
    SETDIJ:  cpu time      0.0033: real time      0.0033
     EDDAV:  cpu time      0.0123: real time      0.0124
       DOS:  cpu time      0.0001: real time      0.0008
    CHARGE:  cpu time      0.0061: real time      0.0062
    MIXING:  cpu time      0.0041: real time      0.0041
    --------------------------------------------
      LOOP:  cpu time      0.1430: real time      0.1442

 eigenvalue-minimisations  :    10
 total energy-change (2. order) : 0.9510482E+00  (-0.1460774E+00)
 number of electron       2.0000000 magnetization 
 augmentation part        0.0162375 magnetization 

 Broyden mixing:
  rms(total) = 0.16776E+00    rms(broyden)= 0.16773E+00
  rms(prec ) = 0.50517E+00
  weight for this iteration     100.00

 eigenvalues of (default mixing * dielectric matrix)
  average eigenvalue GAMMA=   1.4861
  1.4861

 Free energy of the ion-electron system (eV)
  ---------------------------------------------------
  alpha Z        PSCENC =         0.60322170
  Ewald energy   TEWEN  =        -5.94680929
  -Hartree energ DENC   =        -7.78032591
  -exchange      EXHF   =         0.00000000
  -V(xc)+E(xc)   XCENC  =        -2.26735806
  PAW double counting   =        13.01429836       -7.47300630
  entropy T*S    EENTRO =         0.01159581
  eigenvalues    EBANDS =       -12.60176520
  atomic energy  EATOM  =        17.75679653
  Solvation  Ediel_sol  =         0.00000000
  ---------------------------------------------------
  free energy    TOTEN  =        -4.68335236 eV

  energy without entropy =       -4.69494817  energy(sigma->0) =       -4.68721763


--------------------------------------------------------------------------------------------------------




--------------------------------------- Iteration      1(   7)  ---------------------------------------


    POTLOK:  cpu time      0.1169: real time      0.1190
    SETDIJ:  cpu time      0.0032: real time      0.0032
     EDDAV:  cpu time      0.0192: real time      0.0193
       DOS:  cpu time      0.0001: real time      0.0001
    CHARGE:  cpu time      0.0059: real time      0.0059
    MIXING:  cpu time      0.0041: real time      0.0041
    --------------------------------------------
      LOOP:  cpu time      0.1494: real time      0.1516

 eigenvalue-minimisations  :    20
 total energy-change (2. order) : 0.1934550E+00  (-0.1337697E+00)
 number of electron       2.0000000 magnetization 
 augmentation part        0.0137304 magnetization 

 Broyden mixing:
  rms(total) = 0.89219E-01    rms(broyden)= 0.89150E-01
  rms(prec ) = 0.17174E+00
  weight for this iteration     100.00

 eigenvalues of (default mixing * dielectric matrix)
  average eigenvalue GAMMA=   1.8931
  1.8931  1.8931

 Free energy of the ion-electron system (eV)
  ---------------------------------------------------
  alpha Z        PSCENC =         0.60322170
  Ewald energy   TEWEN  =        -5.94680929
  -Hartree energ DENC   =       -10.09550871
  -exchange      EXHF   =         0.00000000
  -V(xc)+E(xc)   XCENC  =        -1.91219594
  PAW double counting   =        16.50370020      -10.96649014
  entropy T*S    EENTRO =         0.01159581
  eigenvalues    EBANDS =       -10.44420755
  atomic energy  EATOM  =        17.75679653
  Solvation  Ediel_sol  =         0.00000000
  ---------------------------------------------------
  free energy    TOTEN  =        -4.48989739 eV

  energy without entropy =       -4.50149320  energy(sigma->0) =       -4.49376266


--------------------------------------------------------------------------------------------------------




--------------------------------------- Iteration      1(   8)  ---------------------------------------


    POTLOK:  cpu time      0.1163: real time      0.1168
    SETDIJ:  cpu time      0.0033: real time      0.0033
     EDDAV:  cpu time      0.0155: real time      0.0156
       DOS:  cpu time      0.0001: real time      0.0001
    CHARGE:  cpu time      0.0059: real time      0.0059
    MIXING:  cpu time      0.0041: real time      0.0042
    --------------------------------------------
      LOOP:  cpu time      0.1451: real time      0.1458

 eigenvalue-minimisations  :    15
 total energy-change (2. order) :-0.4611450E-01  (-0.3130860E-01)
 number of electron       2.0000000 magnetization 
 augmentation part        0.0146187 magnetization 

 Broyden mixing:
  rms(total) = 0.64574E-01    rms(broyden)= 0.64573E-01
  rms(prec ) = 0.18847E+00
  weight for this iteration     100.00

 eigenvalues of (default mixing * dielectric matrix)
  average eigenvalue GAMMA=   1.7645
  2.8296  0.8481  1.6159

 Free energy of the ion-electron system (eV)
  ---------------------------------------------------
  alpha Z        PSCENC =         0.60322170
  Ewald energy   TEWEN  =        -5.94680929
  -Hartree energ DENC   =        -9.13383590
  -exchange      EXHF   =         0.00000000
  -V(xc)+E(xc)   XCENC  =        -2.09017577
  PAW double counting   =        15.11858618       -9.57612679
  entropy T*S    EENTRO =         0.01159581
  eigenvalues    EBANDS =       -11.27926436
  atomic energy  EATOM  =        17.75679653
  Solvation  Ediel_sol  =         0.00000000
  ---------------------------------------------------
  free energy    TOTEN  =        -4.53601189 eV

  energy without entropy =       -4.54760770  energy(sigma->0) =       -4.53987716


--------------------------------------------------------------------------------------------------------




--------------------------------------- Iteration      1(   9)  ---------------------------------------


    POTLOK:  cpu time      0.1164: real time      0.1167
    SETDIJ:  cpu time      0.0033: real time      0.0033
     EDDAV:  cpu time      0.0120: real time      0.0120
       DOS:  cpu time      0.0001: real time      0.0001
    CHARGE:  cpu time      0.0059: real time      0.0059
    MIXING:  cpu time      0.0042: real time      0.0042
    --------------------------------------------
      LOOP:  cpu time      0.1418: real time      0.1423

 eigenvalue-minimisations  :    10
 total energy-change (2. order) : 0.2170135E-01  (-0.1378358E-01)
 number of electron       2.0000000 magnetization 
 augmentation part        0.0140215 magnetization 

 Broyden mixing:
  rms(total) = 0.18113E-01    rms(broyden)= 0.18106E-01
  rms(prec ) = 0.29842E-01
  weight for this iteration     100.00

 eigenvalues of (default mixing * dielectric matrix)
  average eigenvalue GAMMA=   1.5844
  2.9821  1.2825  1.2825  0.7906

 Free energy of the ion-electron system (eV)
  ---------------------------------------------------
  alpha Z        PSCENC =         0.60322170
  Ewald energy   TEWEN  =        -5.94680929
  -Hartree energ DENC   =       -10.07413509
  -exchange      EXHF   =         0.00000000
  -V(xc)+E(xc)   XCENC  =        -1.94674524
  PAW double counting   =        16.36213274      -10.81982728
  entropy T*S    EENTRO =         0.01159581
  eigenvalues    EBANDS =       -10.46054042
  atomic energy  EATOM  =        17.75679653
  Solvation  Ediel_sol  =         0.00000000
  ---------------------------------------------------
  free energy    TOTEN  =        -4.51431054 eV

  energy without entropy =       -4.52590635  energy(sigma->0) =       -4.51817581


--------------------------------------------------------------------------------------------------------




--------------------------------------- Iteration      1(  10)  ---------------------------------------


    POTLOK:  cpu time      0.1165: real time      0.1169
    SETDIJ:  cpu time      0.0033: real time      0.0033
     EDDAV:  cpu time      0.0119: real time      0.0120
       DOS:  cpu time      0.0001: real time      0.0001
    CHARGE:  cpu time      0.0058: real time      0.0059
    MIXING:  cpu time      0.0042: real time      0.0042
    --------------------------------------------
      LOOP:  cpu time      0.1418: real time      0.1424

 eigenvalue-minimisations  :    10
 total energy-change (2. order) :-0.8143127E-02  (-0.4147940E-02)
 number of electron       2.0000000 magnetization 
 augmentation part        0.0136406 magnetization 

 Broyden mixing:
  rms(total) = 0.34276E-01    rms(broyden)= 0.34270E-01
  rms(prec ) = 0.84584E-01
  weight for this iteration     100.00

 eigenvalues of (default mixing * dielectric matrix)
  average eigenvalue GAMMA=   1.9551
  4.4288  1.7502  1.7502  0.9230  0.9230

 Free energy of the ion-electron system (eV)
  ---------------------------------------------------
  alpha Z        PSCENC =         0.60322170
  Ewald energy   TEWEN  =        -5.94680929
  -Hartree energ DENC   =       -10.44627865
  -exchange      EXHF   =         0.00000000
  -V(xc)+E(xc)   XCENC  =        -1.89065077
  PAW double counting   =        16.53232345      -10.99117236
  entropy T*S    EENTRO =         0.01159581
  eigenvalues    EBANDS =       -10.15148008
  atomic energy  EATOM  =        17.75679653
  Solvation  Ediel_sol  =         0.00000000
  ---------------------------------------------------
  free energy    TOTEN  =        -4.52245366 eV

  energy without entropy =       -4.53404948  energy(sigma->0) =       -4.52631893


--------------------------------------------------------------------------------------------------------




--------------------------------------- Iteration      1(  11)  ---------------------------------------


    POTLOK:  cpu time      0.1162: real time      0.1166
    SETDIJ:  cpu time      0.0033: real time      0.0033
     EDDAV:  cpu time      0.0118: real time      0.0119
       DOS:  cpu time      0.0001: real time      0.0001
    CHARGE:  cpu time      0.0058: real time      0.0058
    MIXING:  cpu time      0.0043: real time      0.0043
    --------------------------------------------
      LOOP:  cpu time      0.1414: real time      0.1419

 eigenvalue-minimisations  :    10
 total energy-change (2. order) : 0.4151053E-02  (-0.3257935E-02)
 number of electron       2.0000000 magnetization 
 augmentation part        0.0139535 magnetization 

 Broyden mixing:
  rms(total) = 0.19742E-02    rms(broyden)= 0.19675E-02
  rms(prec ) = 0.50414E-02
  weight for this iteration     100.00

 eigenvalues of (default mixing * dielectric matrix)
  average eigenvalue GAMMA=   1.8921
  4.2856  1.9935  1.9935  0.9019  1.0892  1.0892

 Free energy of the ion-electron system (eV)
  ---------------------------------------------------
  alpha Z        PSCENC =         0.60322170
  Ewald energy   TEWEN  =        -5.94680929
  -Hartree energ DENC   =       -10.08734010
  -exchange      EXHF   =         0.00000000
  -V(xc)+E(xc)   XCENC  =        -1.95074551
  PAW double counting   =        15.92837543      -10.38651433
  entropy T*S    EENTRO =         0.01159581
  eigenvalues    EBANDS =       -10.44688284
  atomic energy  EATOM  =        17.75679653
  Solvation  Ediel_sol  =         0.00000000
  ---------------------------------------------------
  free energy    TOTEN  =        -4.51830261 eV

  energy without entropy =       -4.52989842  energy(sigma->0) =       -4.52216788


--------------------------------------------------------------------------------------------------------




--------------------------------------- Iteration      1(  12)  ---------------------------------------


    POTLOK:  cpu time      0.1164: real time      0.1170
    SETDIJ:  cpu time      0.0033: real time      0.0033
     EDDAV:  cpu time      0.0118: real time      0.0119
       DOS:  cpu time      0.0001: real time      0.0001
    CHARGE:  cpu time      0.0058: real time      0.0059
    MIXING:  cpu time      0.0043: real time      0.0044
    --------------------------------------------
      LOOP:  cpu time      0.1418: real time      0.1426

 eigenvalue-minimisations  :    10
 total energy-change (2. order) :-0.4266627E-03  (-0.1111532E-03)
 number of electron       2.0000000 magnetization 
 augmentation part        0.0139810 magnetization 

 Broyden mixing:
  rms(total) = 0.22068E-02    rms(broyden)= 0.22042E-02
  rms(prec ) = 0.59880E-02
  weight for this iteration     100.00

 eigenvalues of (default mixing * dielectric matrix)
  average eigenvalue GAMMA=   1.9475
  4.0058  3.3159  2.1763  1.4570  0.9006  0.8885  0.8885

 Free energy of the ion-electron system (eV)
  ---------------------------------------------------
  alpha Z        PSCENC =         0.60322170
  Ewald energy   TEWEN  =        -5.94680929
  -Hartree energ DENC   =       -10.10289322
  -exchange      EXHF   =         0.00000000
  -V(xc)+E(xc)   XCENC  =        -1.94894794
  PAW double counting   =        16.00865255      -10.46691520
  entropy T*S    EENTRO =         0.01159581
  eigenvalues    EBANDS =       -10.43343021
  atomic energy  EATOM  =        17.75679653
  Solvation  Ediel_sol  =         0.00000000
  ---------------------------------------------------
  free energy    TOTEN  =        -4.51872927 eV

  energy without entropy =       -4.53032509  energy(sigma->0) =       -4.52259454


--------------------------------------------------------------------------------------------------------




--------------------------------------- Iteration      1(  13)  ---------------------------------------


    POTLOK:  cpu time      0.1162: real time      0.1166
    SETDIJ:  cpu time      0.0033: real time      0.0033
     EDDAV:  cpu time      0.0119: real time      0.0120
       DOS:  cpu time      0.0001: real time      0.0001
    CHARGE:  cpu time      0.0058: real time      0.0059
    MIXING:  cpu time      0.0044: real time      0.0044
    --------------------------------------------
      LOOP:  cpu time      0.1417: real time      0.1422

 eigenvalue-minimisations  :    10
 total energy-change (2. order) :-0.1038400E-03  (-0.6327403E-04)
 number of electron       2.0000000 magnetization 
 augmentation part        0.0140195 magnetization 

 Broyden mixing:
  rms(total) = 0.23595E-02    rms(broyden)= 0.23585E-02
  rms(prec ) = 0.54805E-02
  weight for this iteration     100.00

 eigenvalues of (default mixing * dielectric matrix)
  average eigenvalue GAMMA=   1.9513
  4.2888  3.7145  2.0552  1.6246  1.0451  1.0451  0.9186  0.9186

 Free energy of the ion-electron system (eV)
  ---------------------------------------------------
  alpha Z        PSCENC =         0.60322170
  Ewald energy   TEWEN  =        -5.94680929
  -Hartree energ DENC   =       -10.05314220
  -exchange      EXHF   =         0.00000000
  -V(xc)+E(xc)   XCENC  =        -1.95733121
  PAW double counting   =        15.99432702      -10.45256562
  entropy T*S    EENTRO =         0.01159581
  eigenvalues    EBANDS =       -10.47492584
  atomic energy  EATOM  =        17.75679653
  Solvation  Ediel_sol  =         0.00000000
  ---------------------------------------------------
  free energy    TOTEN  =        -4.51883311 eV

  energy without entropy =       -4.53042893  energy(sigma->0) =       -4.52269838


--------------------------------------------------------------------------------------------------------




--------------------------------------- Iteration      1(  14)  ---------------------------------------


    POTLOK:  cpu time      0.1163: real time      0.1167
    SETDIJ:  cpu time      0.0033: real time      0.0033
     EDDAV:  cpu time      0.0117: real time      0.0118
       DOS:  cpu time      0.0001: real time      0.0001
    CHARGE:  cpu time      0.0058: real time      0.0058
    MIXING:  cpu time      0.0045: real time      0.0045
    --------------------------------------------
      LOOP:  cpu time      0.1416: real time      0.1421

 eigenvalue-minimisations  :    10
 total energy-change (2. order) :-0.1974813E-05  (-0.5283610E-05)
 number of electron       2.0000000 magnetization 
 augmentation part        0.0140160 magnetization 

 Broyden mixing:
  rms(total) = 0.14516E-02    rms(broyden)= 0.14516E-02
  rms(prec ) = 0.29778E-02
  weight for this iteration     100.00

 eigenvalues of (default mixing * dielectric matrix)
  average eigenvalue GAMMA=   1.9824
  4.5984  3.5629  2.3406  2.3406  1.3443  1.0115  0.9213  0.9213  0.8005

 Free energy of the ion-electron system (eV)
  ---------------------------------------------------
  alpha Z        PSCENC =         0.60322170
  Ewald energy   TEWEN  =        -5.94680929
  -Hartree energ DENC   =       -10.06734312
  -exchange      EXHF   =         0.00000000
  -V(xc)+E(xc)   XCENC  =        -1.95526990
  PAW double counting   =        15.99770319      -10.45599520
  entropy T*S    EENTRO =         0.01159581
  eigenvalues    EBANDS =       -10.46273481
  atomic energy  EATOM  =        17.75679653
  Solvation  Ediel_sol  =         0.00000000
  ---------------------------------------------------
  free energy    TOTEN  =        -4.51883509 eV

  energy without entropy =       -4.53043090  energy(sigma->0) =       -4.52270036


--------------------------------------------------------------------------------------------------------




--------------------------------------- Iteration      1(  15)  ---------------------------------------


    POTLOK:  cpu time      0.1162: real time      0.1167
    SETDIJ:  cpu time      0.0033: real time      0.0033
     EDDAV:  cpu time      0.0118: real time      0.0119
       DOS:  cpu time      0.0001: real time      0.0001
    CHARGE:  cpu time      0.0058: real time      0.0058
    MIXING:  cpu time      0.0046: real time      0.0046
    --------------------------------------------
      LOOP:  cpu time      0.1417: real time      0.1424

 eigenvalue-minimisations  :    10
 total energy-change (2. order) : 0.2637634E-05  (-0.3563057E-05)
 number of electron       2.0000000 magnetization 
 augmentation part        0.0140059 magnetization 

 Broyden mixing:
  rms(total) = 0.10642E-03    rms(broyden)= 0.10619E-03
  rms(prec ) = 0.30284E-03
  weight for this iteration     100.00

 eigenvalues of (default mixing * dielectric matrix)
  average eigenvalue GAMMA=   1.9943
  4.6158  3.6939  2.9895  2.3844  1.3957  1.0736  1.0736  0.9332  0.9332  0.8503

 Free energy of the ion-electron system (eV)
  ---------------------------------------------------
  alpha Z        PSCENC =         0.60322170
  Ewald energy   TEWEN  =        -5.94680929
  -Hartree energ DENC   =       -10.07847298
  -exchange      EXHF   =         0.00000000
  -V(xc)+E(xc)   XCENC  =        -1.95359530
  PAW double counting   =        15.98634420      -10.44470855
  entropy T*S    EENTRO =         0.01159581
  eigenvalues    EBANDS =       -10.45320456
  atomic energy  EATOM  =        17.75679653
  Solvation  Ediel_sol  =         0.00000000
  ---------------------------------------------------
  free energy    TOTEN  =        -4.51883245 eV

  energy without entropy =       -4.53042826  energy(sigma->0) =       -4.52269772


--------------------------------------------------------------------------------------------------------




--------------------------------------- Iteration      1(  16)  ---------------------------------------


    POTLOK:  cpu time      0.1245: real time      0.1249
    SETDIJ:  cpu time      0.0034: real time      0.0034
     EDDAV:  cpu time      0.0155: real time      0.0156
       DOS:  cpu time      0.0001: real time      0.0001
    --------------------------------------------
      LOOP:  cpu time      0.1435: real time      0.1440

 eigenvalue-minimisations  :    15
 total energy-change (2. order) :-0.2717629E-06  (-0.1626169E-06)
 number of electron       2.0000000 magnetization 
 augmentation part        0.0140059 magnetization 

 Free energy of the ion-electron system (eV)
  ---------------------------------------------------
  alpha Z        PSCENC =         0.60322170
  Ewald energy   TEWEN  =        -5.94680929
  -Hartree energ DENC   =       -10.08000494
  -exchange      EXHF   =         0.00000000
  -V(xc)+E(xc)   XCENC  =        -1.95334491
  PAW double counting   =        15.98599112      -10.44436700
  entropy T*S    EENTRO =         0.01159581
  eigenvalues    EBANDS =       -10.45191175
  atomic energy  EATOM  =        17.75679653
  Solvation  Ediel_sol  =         0.00000000
  ---------------------------------------------------
  free energy    TOTEN  =        -4.51883272 eV

  energy without entropy =       -4.53042853  energy(sigma->0) =       -4.52269799


--------------------------------------------------------------------------------------------------------




 average (electrostatic) potential at core
  the test charge radii are     1.0393  0.5883
  (the norm of the test charge is              1.0000)
       1 -10.1936       2 -35.5478
 
 
 
 E-fermi :  -5.0576     XC(G=0):  -3.0376     alpha+bet : -0.9111

 Fermi energy:        -5.0575794316

 k-point     1 :       0.0000    0.0000    0.0000
  band No.  band energies     occupation 
      1      -5.2260      2.00000
      2      -1.3937     -0.00000
      3       1.2243      0.00000
      4       1.2243      0.00000
      5       2.0244      0.00000


--------------------------------------------------------------------------------------------------------


 soft charge-density along one line, spin component           1
         0         1         2         3         4         5         6         7         8         9
 total charge-density along one line
 
 pseudopotential strength for first ion, spin component:           1
  0.650  -3.338   0.000  -0.022  -0.000  -0.000   0.067   0.000
 -3.338  18.599  -0.000   0.072   0.000   0.000  -0.278  -0.000
  0.000  -0.000  -4.023   0.000  -0.000   7.244   0.000  -0.000
 -0.022   0.072   0.000  -4.022   0.000   0.000   7.236   0.000
 -0.000   0.000  -0.000   0.000  -4.023  -0.000   0.000   7.244
 -0.000   0.000   7.244   0.000  -0.000 -39.247  -0.000   0.000
  0.067  -0.278   0.000   7.236   0.000  -0.000 -39.246   0.000
  0.000  -0.000  -0.000   0.000   7.244   0.000   0.000 -39.247
  0.000  -0.000  -0.000  -0.000   0.000   0.000  -0.000  -0.000
 -0.000   0.000  -0.003   0.000  -0.000   0.014  -0.000  -0.000
 -0.001   0.002  -0.000  -0.004   0.000   0.000   0.012  -0.000
  0.000  -0.000  -0.000  -0.000  -0.003  -0.000   0.000   0.014
  0.000   0.000  -0.000  -0.000  -0.000   0.000  -0.000   0.000
 total augmentation occupancy for first ion, spin component:           1
  1.047   0.010  -0.000   0.329   0.000  -0.000   0.009  -0.000   0.000  -0.000   0.151  -0.000  -0.000
  0.010   0.000  -0.000   0.003   0.000  -0.000   0.000  -0.000   0.000  -0.000   0.002  -0.000  -0.000
 -0.000  -0.000   0.000  -0.000  -0.000   0.000  -0.000   0.000  -0.000   0.000  -0.000   0.000   0.000
  0.329   0.003  -0.000   0.103   0.000  -0.000   0.003  -0.000   0.000  -0.000   0.047  -0.000  -0.000
  0.000   0.000  -0.000   0.000   0.000  -0.000   0.000  -0.000   0.000  -0.000   0.000  -0.000  -0.000
 -0.000  -0.000   0.000  -0.000  -0.000   0.000  -0.000   0.000  -0.000   0.000  -0.000   0.000   0.000
  0.009   0.000  -0.000   0.003   0.000  -0.000   0.000  -0.000   0.000  -0.000   0.001  -0.000  -0.000
 -0.000  -0.000   0.000  -0.000  -0.000   0.000  -0.000   0.000  -0.000   0.000  -0.000   0.000   0.000
  0.000   0.000  -0.000   0.000   0.000  -0.000   0.000  -0.000   0.000  -0.000   0.000  -0.000  -0.000
 -0.000  -0.000   0.000  -0.000  -0.000   0.000  -0.000   0.000  -0.000   0.000  -0.000   0.000   0.000
  0.151   0.002  -0.000   0.047   0.000  -0.000   0.001  -0.000   0.000  -0.000   0.022  -0.000  -0.000
 -0.000  -0.000   0.000  -0.000  -0.000   0.000  -0.000   0.000  -0.000   0.000  -0.000   0.000   0.000
 -0.000  -0.000   0.000  -0.000  -0.000   0.000  -0.000   0.000  -0.000   0.000  -0.000   0.000   0.000


------------------------ aborting loop because EDIFF is reached ----------------------------------------


    CHARGE:  cpu time      0.0069: real time      0.0070
    FORLOC:  cpu time      0.0097: real time      0.0097
    FORNL :  cpu time      0.0071: real time      0.0071
    STRESS:  cpu time      0.0360: real time      0.0361
    FORCOR:  cpu time      0.1170: real time      0.1173
    FORHAR:  cpu time      0.0350: real time      0.0351
    MIXING:  cpu time      0.0051: real time      0.0051
    OFIELD:  cpu time      0.0000: real time      0.0000

  FORCE on cell =-STRESS in cart. coord.  units (eV):
  Direction    XX          YY          ZZ          XY          YZ          ZX
  --------------------------------------------------------------------------------------
  Alpha Z     0.60322     0.60322     0.60322
  Ewald      -5.34586    -5.34586     4.74490    -0.00000     0.00000    -0.00000
  Hartree     3.29777     3.29777     3.48326    -0.00000     0.00000     0.00000
  E(xc)      -4.27883    -4.27883    -4.33171    -0.00000    -0.00000    -0.00000
  Local      -3.13861    -3.13861   -13.15571     0.00000    -0.00000    -0.00000
  n-local    -2.08004    -2.08004    -2.40856    -0.00000     0.00000     0.00000
  augment     0.06587     0.06587     0.06204    -0.00000    -0.00000    -0.00000
  Kinetic     9.96006     9.96006     9.74033     0.00000    -0.00000    -0.00000
  Fock        0.00000     0.00000     0.00000     0.00000     0.00000     0.00000
  -------------------------------------------------------------------------------------
  Total      -0.91642    -0.91642    -1.26222     0.00000    -0.00000    -0.00000
  in kB      -9.90734    -9.90734   -13.64578     0.00000    -0.00000    -0.00000
  external pressure =      -11.15 kB  Pullay stress =        0.00 kB


 VOLUME and BASIS-vectors are now :
 -----------------------------------------------------------------------------
  energy-cutoff  :      400.00
  volume of cell :      148.20
      direct lattice vectors                 reciprocal lattice vectors
     5.291954090  0.000000000  0.000000000     0.188966114  0.000000000  0.000000000
     0.000000000  5.291954090  0.000000000     0.000000000  0.188966114  0.000000000
     0.000000000  0.000000000  5.291954090     0.000000000  0.000000000  0.188966114

  length of vectors
     5.291954090  5.291954090  5.291954090     0.188966114  0.188966114  0.188966114


 FORCES acting on ions
    electron-ion (+dipol)            ewald-force                    non-local-force                 convergence-correction
 -----------------------------------------------------------------------------------------------
   0.669E-08 -.158E-07 0.537E+01   0.157E-17 0.848E-17 -.463E+01   0.984E-08 0.719E-07 -.128E+01   -.888E-08 0.721E-08 0.751E-04
   0.312E-07 -.284E-08 -.331E+01   -.431E-17 -.606E-17 0.463E+01   -.244E-08 -.184E-07 -.779E+00   -.498E-07 -.436E-07 0.423E-04
 -----------------------------------------------------------------------------------------------
   0.379E-07 -.186E-07 0.205E+01   -.274E-17 0.243E-17 0.000E+00   0.740E-08 0.535E-07 -.205E+01   -.586E-07 -.364E-07 0.117E-03
 
 
 POSITION                                       TOTAL-FORCE (eV/Angst)
 -----------------------------------------------------------------------------------
      0.00000      0.00000      0.00000         0.000000      0.000000     -0.536535
      0.00000      0.00000      1.62106        -0.000000     -0.000000      0.536535
 -----------------------------------------------------------------------------------
    total drift:                               -0.000000     -0.000000     -0.000155


--------------------------------------------------------------------------------------------------------



  FREE ENERGIE OF THE ION-ELECTRON SYSTEM (eV)
  ---------------------------------------------------
  free  energy   TOTEN  =        -4.51883272 eV

  energy  without entropy=       -4.53042853  energy(sigma->0) =       -4.52269799
 


--------------------------------------------------------------------------------------------------------


    POTLOK:  cpu time      0.1186: real time      0.1189


--------------------------------------------------------------------------------------------------------


 writing wavefunctions
     LOOP+:  cpu time      2.4808: real time      2.4953
    4ORBIT:  cpu time      0.0000: real time      0.0000

 total amount of memory used by VASP MPI-rank0    66706. kBytes
=======================================================================

   base      :      30000. kBytes
   nonl-proj :        326. kBytes
   fftplans  :      13060. kBytes
   grid      :      23203. kBytes
   one-center:          8. kBytes
   wavefun   :        109. kBytes
 
  
  
 General timing and accounting informations for this job:
 ========================================================
  
                  Total CPU time used (sec):        3.297
                            User time (sec):        2.675
                          System time (sec):        0.622
                         Elapsed time (sec):        3.410
  
                   Maximum memory used (kb):      160256.
                   Average memory used (kb):          N/A
  
                          Minor page faults:        63481
                          Major page faults:         1059
                 Voluntary context switches:          818
