 vasp.6.3.0 20Jan22 (build Mar 06 2023 08:06:32) gamma-only                     
  
 executed on             LinuxIFC date 2025.05.22  11:40:58
 running on    1 total cores
 distrk:  each k-point on    1 cores,    1 groups
 distr:  one band on NCORE=   1 cores,    1 groups


--------------------------------------------------------------------------------------------------------


 INCAR:
   ENCUT = 400
   SIGMA = 0.001
   EDIFF = 1E-6
   LHFCALC = .TRUE.
   AEXX = 1.0
   ALGO = C
   NELM = 10000
   ISYM = -1
   PREC = Accurate

 POTCAR:    PAW_PBE Li_GW 23Jun2021               
 POTCAR:    PAW_PBE H_GW 21Apr2008                
 POTCAR:    PAW_PBE Li_GW 23Jun2021               
   SHA256 =  8825fb35c7e4969bc2ee643901f25156348bca79849b21eacd5f3f060d4d23e8 Li_GW/POTCAR          
   COPYR  = (c) Copyright 23Jun2021 Georg Kresse                                                    
   COPYR  = This file is part of the software VASP. Any use, copying, and all other rights are regul
   COPYR  = If you do not have a valid VASP license, you may not use, copy or distribute this file. 
   VRHFIN =Li: s1p0                                                                                 
   LEXCH  = PE                                                                                      
   EATOM  =     5.3001 eV,    0.3895 Ry                                                             
                                                                                                    
   TITEL  = PAW_PBE Li_GW 23Jun2021                                                                 
   LULTRA =        F    use ultrasoft PP ?                                                          
   IUNSCR =        1    unscreen: 0-lin 1-nonlin 2-no                                               
   RPACOR =    1.500    partial core radius                                                         
   POMASS =    7.010; ZVAL   =    1.000    mass and valenz                                          
   RCORE  =    2.100    outmost cutoff radius                                                       
   RWIGS  =    2.600; RWIGS  =    1.376    wigner-seitz radius (au A)                               
   ENMAX  =  112.104; ENMIN  =   84.078 eV                                                          
   RCLOC  =    2.012    cutoff for local pot                                                        
   LCOR   =        T    correct aug charges                                                         
   LPAW   =        T    paw PP                                                                      
   EAUG   =  483.286                                                                                
   DEXC   =   -0.000                                                                                
   RMAX   =    2.149    core radius for proj-oper                                                   
   RAUG   =    1.300    factor for augmentation sphere                                              
   RDEP   =    2.232    radius for radial grids                                                     
   RDEPT  =    1.854    core radius for aug-charge                                                  
                                                                                                    
   Atomic configuration                                                                             
    4 entries                                                                                       
     n  l   j            E        occ.                                                              
     1  0  0.50       -51.8549   2.0000                                                             
     2  0  0.50        -2.8742   1.0000                                                             
     2  1  0.50        -2.8708   0.0000                                                             
     3  2  1.50        -1.3606   0.0000                                                             
   Description                                                                                      
     l       E           TYP  RCUT    TYP  RCUT                                                     
     0     -2.8742051     23  2.100                                                                 
     0     54.4233040     23  2.100                                                                 
     1     -2.8708293     23  2.050                                                                 
     1     54.4233040     23  2.050                                                                 
     2     -1.3605826     23  2.050                                                                 
  local pseudopotential read in
  partial core-charges read in
  partial kinetic energy density read in
  kinetic energy density of atom read in
  atomic valenz-charges read in
  non local Contribution for L=           0  read in
    real space projection operators read in
  non local Contribution for L=           0  read in
    real space projection operators read in
  non local Contribution for L=           1  read in
    real space projection operators read in
  non local Contribution for L=           1  read in
    real space projection operators read in
  non local Contribution for L=           2  read in
    real space projection operators read in
    PAW grid and wavefunctions read in
 
   number of l-projection  operators is LMAX  =           5
   number of lm-projection operators is LMMAX =          13
 
 POTCAR:    PAW_PBE H_GW 21Apr2008                
   SHA256 =  cecc88617a3d1ece9865646f5d462fc0f44fd1f68d6f2eb08f18a2e421902afb H_GW/POTCAR           
   COPYR  = (c) Copyright 21Apr2008 Georg Kresse                                                    
   COPYR  = This file is part of the software VASP. Any use, copying, and all other rights are regul
   COPYR  = If you do not have a valid VASP license, you may not use, copy or distribute this file. 
   VRHFIN =H: ultrasoft test                                                                        
   LEXCH  = PE                                                                                      
   EATOM  =    12.4884 eV,    0.9179 Ry                                                             
                                                                                                    
   TITEL  = PAW_PBE H_GW 21Apr2008                                                                  
   LULTRA =        F    use ultrasoft PP ?                                                          
   IUNSCR =        0    unscreen: 0-lin 1-nonlin 2-no                                               
   RPACOR =    0.000    partial core radius                                                         
   POMASS =    1.000; ZVAL   =    1.000    mass and valenz                                          
   RCORE  =    1.100    outmost cutoff radius                                                       
   RWIGS  =    1.100; RWIGS  =    0.582    wigner-seitz radius (au A)                               
   ENMAX  =  300.000; ENMIN  =  250.000 eV                                                          
   RCLOC  =    0.701    cutoff for local pot                                                        
   LCOR   =        T    correct aug charges                                                         
   LPAW   =        T    paw PP                                                                      
   EAUG   =  500.000                                                                                
   RMAX   =    1.123    core radius for proj-oper                                                   
   RAUG   =    1.200    factor for augmentation sphere                                              
   RDEP   =    1.112    radius for radial grids                                                     
   RDEPT  =    1.100    core radius for aug-charge                                                  
                                                                                                    
   Atomic configuration                                                                             
    3 entries                                                                                       
     n  l   j            E        occ.                                                              
     1  0  0.50        -6.4927   1.0000                                                             
     2  1  0.50        -3.4015   0.0000                                                             
     3  2  1.50        13.6058   0.0000                                                             
   Description                                                                                      
     l       E           TYP  RCUT    TYP  RCUT                                                     
     0     -6.4927495     23  0.950                                                                 
     0      6.8029130     23  0.950                                                                 
     1     -4.0817478     23  1.100                                                                 
     1    108.8466080     23  1.100                                                                 
     2     81.6349560     23  1.100                                                                 
  local pseudopotential read in
  kinetic energy density of atom read in
  atomic valenz-charges read in
  non local Contribution for L=           0  read in
    real space projection operators read in
  non local Contribution for L=           0  read in
    real space projection operators read in
  non local Contribution for L=           1  read in
    real space projection operators read in
  non local Contribution for L=           1  read in
    real space projection operators read in
  non local Contribution for L=           2  read in
    real space projection operators read in
    PAW grid and wavefunctions read in
 
   number of l-projection  operators is LMAX  =           5
   number of lm-projection operators is LMMAX =          13
 
  PAW_PBE Li_GW 23Jun2021               :
 energy of atom  1       EATOM=   -5.3001
 kinetic energy error for atom=    0.0000 (will be added to EATOM!!)
  PAW_PBE H_GW 21Apr2008                :
 energy of atom  2       EATOM=  -12.4884
 kinetic energy error for atom=    0.0317 (will be added to EATOM!!)
 
 
 POSCAR: LiH
  positions in cartesian coordinates
  No initial velocities read in
 exchange correlation table for  LEXCH =        8
   RHO(1)=    0.500       N(1)  =     2000
   RHO(2)=  100.500       N(2)  =     4000
 


--------------------------------------------------------------------------------------------------------


 ion  position               nearest neighbor table
   1  0.000  0.000  0.000-   2 1.62
   2  0.000  0.000  0.219-   1 1.62
 

IMPORTANT INFORMATION: All symmetrisations will be switched off!
NOSYMM: (Re-)initialisation of all symmetry stuff for point group C_1.


----------------------------------------------------------------------------------------

                                     Primitive cell                                     

  volume of cell :     406.5400

  direct lattice vectors                    reciprocal lattice vectors
     7.408002056  0.000000000  0.000000000     0.134989163  0.000000000  0.000000000
     0.000000000  7.408002056  0.000000000     0.000000000  0.134989163  0.000000000
     0.000000000  0.000000000  7.408002056     0.000000000  0.000000000  0.134989163

  length of vectors
     7.408002056  7.408002056  7.408002056     0.134989163  0.134989163  0.134989163

  position of ions in fractional coordinates (direct lattice)
     0.000000000  0.000000000  0.000000000
     0.000000000  0.000000000  0.218825931

  ion indices of the primitive-cell ions
   primitive index   ion index
                 1           1
                 2           2

----------------------------------------------------------------------------------------

 
 
 KPOINTS: Automatically generated mesh            

Automatic generation of k-mesh.
 Grid dimensions read from file:
 generate k-points for:    1    1    1

 Generating k-lattice:

  Cartesian coordinates                     Fractional coordinates (reciprocal lattice)
     0.134989163  0.000000000  0.000000000     1.000000000  0.000000000  0.000000000
     0.000000000  0.134989163  0.000000000     0.000000000  1.000000000  0.000000000
     0.000000000  0.000000000  0.134989163     0.000000000  0.000000000  1.000000000

  Length of vectors
     0.134989163  0.134989163  0.134989163

  Shift w.r.t. Gamma in fractional coordinates (k-lattice)
     0.000000000  0.000000000  0.000000000

 
 Subroutine IBZKPT returns following result:
 ===========================================
 
 Found      1 irreducible k-points:
 
 Following reciprocal coordinates:
            Coordinates               Weight
  0.000000  0.000000  0.000000      1.000000
 
 Following cartesian coordinates:
            Coordinates               Weight
  0.000000  0.000000  0.000000      1.000000
 
 WARNING: full set of k-points will be restricted to regular points only.

 
 Subroutine IBZKPT_HF returns following result:
 ==============================================
 
 Found      1 k-points in 1st BZ
 the following      1 k-points will be used (e.g. in the exchange kernel)
 Following reciprocal coordinates:   # in IRBZ
  0.000000  0.000000  0.000000    1.00000000   1 t-inv F


--------------------------------------------------------------------------------------------------------




 Dimension of arrays:
   k-points           NKPTS =      1   k-points in BZ     NKDIM =      1   number of bands    NBANDS=      5
   number of dos      NEDOS =    301   number of ions     NIONS =      2
   non local maximal  LDIM  =      5   non local SUM 2l+1 LMDIM =     13
   total plane-waves  NPLWV = 110592
   max r-space proj   IRMAX =      1   max aug-charges    IRDMAX=  10745
   dimension x,y,z NGX =    48 NGY =   48 NGZ =   48
   dimension x,y,z NGXF=    96 NGYF=   96 NGZF=   96
   support grid    NGXF=    96 NGYF=   96 NGZF=   96
   ions per type =               1   1
   NGX,Y,Z   is equivalent  to a cutoff of  10.77, 10.77, 10.77 a.u.
   NGXF,Y,Z  is equivalent  to a cutoff of  21.54, 21.54, 21.54 a.u.

 SYSTEM =  unknown system                          
 POSCAR =  LiH                                     

 Startparameter for this run:
   NWRITE =      2    write-flag & timer
   PREC   = accura    normal or accurate (medium, high low for compatibility)
   ISTART =      1    job   : 0-new  1-cont  2-samecut
   ICHARG =      0    charge: 1-file 2-atom 10-const
   ISPIN  =      1    spin polarized calculation?
   LNONCOLLINEAR =      F non collinear calculations
   LSORBIT =      F    spin-orbit coupling
   INIWAV =      1    electr: 0-lowe 1-rand  2-diag
   LASPH  =      F    aspherical Exc in radial PAW
 Electronic Relaxation 1
   ENCUT  =  400.0 eV  29.40 Ry    5.42 a.u.  12.08 12.08 12.08*2*pi/ulx,y,z
   ENINI  =  400.0     initial cutoff
   ENAUG  =  500.0 eV  augmentation charge cutoff
   NELM   =  10000;   NELMIN=  2; NELMDL=  0     # of ELM steps 
   EDIFF  = 0.1E-05   stopping-criterion for ELM
   LREAL  =      F    real-space projection
   NLSPLINE    = F    spline interpolate recip. space projectors
   LCOMPAT=      F    compatible to vasp.4.4
   GGA_COMPAT  = T    GGA compatible to vasp.4.4-vasp.4.6
   LMAXPAW     = -100 max onsite density
   LMAXMIX     =    2 max onsite mixed and CHGCAR
   VOSKOWN=      0    Vosko Wilk Nusair interpolation
   ROPT   =    0.00000   0.00000
 Ionic relaxation
   EDIFFG = 0.1E-04   stopping-criterion for IOM
   NSW    =      0    number of steps for IOM
   NBLOCK =      1;   KBLOCK =      1    inner block; outer block 
   IBRION =     -1    ionic relax: 0-MD 1-quasi-New 2-CG
   NFREE  =      0    steps in history (QN), initial steepest desc. (CG)
   ISIF   =      0    stress and relaxation
   IWAVPR =     10    prediction:  0-non 1-charg 2-wave 3-comb
   ISYM   =     -1    0-nonsym 1-usesym 2-fastsym
   LCORR  =      T    Harris-Foulkes like correction to forces

   POTIM  = 0.5000    time-step for ionic-motion
   TEIN   =    0.0    initial temperature
   TEBEG  =    0.0;   TEEND  =   0.0 temperature during run
   SMASS  =  -3.00    Nose mass-parameter (am)
   estimated Nose-frequenzy (Omega)   =  0.10E-29 period in steps = 0.13E+47 mass=  -0.125E-26a.u.
   SCALEE = 1.0000    scale energy and forces
   NPACO  =    256;   APACO  = 10.0  distance and # of slots for P.C.
   PSTRESS=    0.0 pullay stress

  Mass of Ions in am
   POMASS =   7.01  1.00
  Ionic Valenz
   ZVAL   =   1.00  1.00
  Atomic Wigner-Seitz radii
   RWIGS  =  -1.00 -1.00
  virtual crystal weights 
   VCA    =   1.00  1.00
   NELECT =       2.0000    total number of electrons
   NUPDOWN=      -1.0000    fix difference up-down

 DOS related values:
   EMIN   =  10.00;   EMAX   =-10.00  energy-range for DOS
   EFERMI =   0.00
   ISMEAR =     1;   SIGMA  =   0.00  broadening in eV -4-tet -1-fermi 0-gaus

 Electronic relaxation 2 (details)
   IALGO  =     58    algorithm
   LDIAG  =      T    sub-space diagonalisation (order eigenvalues)
   LSUBROT=      F    optimize rotation matrix (better conditioning)
   TURBO    =      0    0=normal 1=particle mesh
   IRESTART =      0    0=no restart 2=restart with 2 vectors
   NREBOOT  =      0    no. of reboots
   NMIN     =      0    reboot dimension
   EREF     =   0.00    reference energy to select bands
   IMIX   =      4    mixing-type and parameters
     AMIX     =   0.40;   BMIX     =  1.00
     AMIX_MAG =   1.60;   BMIX_MAG =  1.00
     AMIN     =   0.10
     WC   =   100.;   INIMIX=   1;  MIXPRE=   1;  MAXMIX= -45

 Intra band minimization:
   WEIMIN = 0.0000     energy-eigenvalue tresh-hold
   EBREAK =  0.50E-07  absolut break condition
   DEPER  =   0.30     relativ break condition  

   TIME   =   0.40     timestep for ELM

  volume/ion in A,a.u.               =     203.27      1371.73
  Fermi-wavevector in a.u.,A,eV,Ry     =   0.278431  0.526158  1.054773  0.077524
  Thomas-Fermi vector in A             =   1.125155
 
 Write flags
   LWAVE        =      T    write WAVECAR
   LDOWNSAMPLE  =      F    k-point downsampling of WAVECAR
   LCHARG       =      T    write CHGCAR
   LVTOT        =      F    write LOCPOT, total local potential
   LVHAR        =      F    write LOCPOT, Hartree potential only
   LELF         =      F    write electronic localiz. function (ELF)
   LORBIT       =      0    0 simple, 1 ext, 2 COOP (PROOUT), +10 PAW based schemes


 Dipole corrections
   LMONO  =      F    monopole corrections only (constant potential shift)
   LDIPOL =      F    correct potential (dipole corrections)
   IDIPOL =      0    1-x, 2-y, 3-z, 4-all directions 
   EPSILON=  1.0000000 bulk dielectric constant

 Exchange correlation treatment:
   GGA     =    --    GGA type
   LEXCH   =     8    internal setting for exchange type
   LIBXC   =     F    Libxc                    
   VOSKOWN =     0    Vosko Wilk Nusair interpolation
   EXXOEP  =     0    0=HF, 1=EXX-LHF (local Hartree Fock) 2=EXX OEP
   LHFCALC =     T    Hartree Fock is set to
   LSYMGRAD=     F    symmetrize gradient (conserves proper symmetry)
   PRECFOCK=normal    Normal, Fast or Accurate (Low or Medium for compatibility)
   LRHFCALC=     F    long range Hartree Fock
   LRSCOR  =     F    long range correlation only (use DFT for short range part)
   LTHOMAS =     F    Thomas Fermi screening in HF
   LMODELHF=     F    short range full HF, long range fraction AEXX
   LFOCKACE=     T    use Adeptively-Compressed-Exchange operator
   ENCUT4O =  -1.0   cutoff for four orbital integrals eV
   LMAXFOCK=     4    L truncation for augmentation on plane wave grid
   LMAXFOCKAE=  -1    L truncation for all-electron charge restoration on plane wave grid
   NMAXFOCKAE=   1    number of basis functions for all-electron charge restoration
   LFOCKAEDFT=     F  apply the AE augmentation even for DFT
   NKREDX  =     1    reduce k-point grid by
   NKREDY  =     1    reduce k-point grid by
   NKREDZ  =     1    reduce k-point grid by
   SHIFTRED=     F    shift reduced grid of Gamma
   HFKIDENT=     F    idential grid for each k-point
   ODDONLY =     F    use only odd q-grid points
   EVENONLY=     F    use only even q-grid points
   HFALPHA =   -1.0000 decay constant for conv. correction
   MCALPHA =    0.0000 extent of test-charge in conv. correction in multipole expansion
   AEXX    =    1.0000 exact exchange contribution
   HFSCREEN=    0.0000 screening length (either q_TF or 0.3 A-1)
   HFSCREENC=   0.0000 screening length for correlation (either q_TF or 0.3 A-1)
   HFRCUT  =    0.0000 spherical cutoff for potential kernel
   HFRCUTSOFT=    0.0000 smooth spherical cutoff for potential kernel
   SLABRCUT=    0.0000 cutoff in one direction for potential kernel
   SLABRCUT_DIRECTION=   3 cutoff direction for SLABRCUT
   ERFCRAY_SCREEN=    0.0000 screening factor for erfc+rayleigh like screening for potential kernel
   RAYLEXP=    0.0000  rayleigh exponent in erfc+rayleigh like screening
   ALDAX   =    0.0000 LDA exchange part
   AGGAX   =    0.0000 GGA exchange part
   ALDAC   =    0.0000 LDA correlation
   AGGAC   =    0.0000 GGA correlation
   ENCUTFOCK=  -1.0 apply spherical cutoff to Coloumb kernel
   NBANDSGWLOW=     1    first orbital included in HF term
   NBLOCK_FOCK=    64    blocking factor in FOCK_ACC

 Linear response parameters
   LEPSILON=     F    determine dielectric tensor
   LRPA    =     F    only Hartree local field effects (RPA)
   LNABLA  =     F    use nabla operator in PAW spheres
   LVEL    =     F    velocity operator in full k-point grid
   CSHIFT  =0.1000    complex shift for real part using Kramers Kronig
   OMEGAMAX=  -1.0    maximum frequency
   DEG_THRESHOLD= 0.2000000E-02 threshold for treating states as degnerate
   RTIME   =   -0.100 relaxation time in fs
  (WPLASMAI=    0.000 imaginary part of plasma frequency in eV, 0.658/RTIME)
   DFIELD  = 0.0000000 0.0000000 0.0000000 field for delta impulse in time
 
  Optional k-point grid parameters
   LKPOINTS_OPT  =     F    use optional k-point grid
   KPOINTS_OPT_MODE=     1    mode for optional k-point grid
 
 Orbital magnetization related:
   ORBITALMAG=     F  switch on orbital magnetization
   LCHIMAG   =     F  perturbation theory with respect to B field
   DQ        =  0.001000  dq finite difference perturbation B field
   LLRAUG    =     F  two centre corrections for induced B field



--------------------------------------------------------------------------------------------------------


 Static calculation
 charge density and potential will be updated during run
 non-spin polarized calculation
 Conjugate gradient for all bands (Freysoldt, et al. PRB 79, 241103 (2009))
 preconditioned conjugated gradient                                        
 perform sub-space diagonalisation
    before iterative eigenvector-optimisation
 modified Broyden-mixing scheme, WC =      100.0
 initial mixing is a Kerker type mixing with AMIX =  0.4000 and BMIX =      1.0000
 Hartree-type preconditioning will be used
 using additional bands            4
 reciprocal scheme for non local part
 use partial core corrections
 no Harris-corrections to forces 
 use gradient corrections 
 use of overlap-Matrix (Vanderbilt PP)
 Methfessel and Paxton  Order N= 1 SIGMA  =   0.00


--------------------------------------------------------------------------------------------------------


  energy-cutoff  :      400.00
  volume of cell :      406.54
      direct lattice vectors                 reciprocal lattice vectors
     7.408002056  0.000000000  0.000000000     0.134989163  0.000000000  0.000000000
     0.000000000  7.408002056  0.000000000     0.000000000  0.134989163  0.000000000
     0.000000000  0.000000000  7.408002056     0.000000000  0.000000000  0.134989163

  length of vectors
     7.408002056  7.408002056  7.408002056     0.134989163  0.134989163  0.134989163


 
 old parameters found on file WAVECAR:
  energy-cutoff  :      400.00
  volume of cell :      406.54
      direct lattice vectors                 reciprocal lattice vectors
     7.408002056  0.000000000  0.000000000     0.134989163  0.000000000  0.000000000
     0.000000000  7.408002056  0.000000000     0.000000000  0.134989163  0.000000000
     0.000000000  0.000000000  7.408002056     0.000000000  0.000000000  0.134989163

  length of vectors

 
 k-points in units of 2pi/SCALE and weight: Automatically generated mesh            
   0.00000000  0.00000000  0.00000000       1.000
 
 k-points in reciprocal lattice and weights: Automatically generated mesh            
   0.00000000  0.00000000  0.00000000       1.000
 
 position of ions in fractional coordinates (direct lattice) 
   0.00000000  0.00000000  0.00000000
   0.00000000  0.00000000  0.21882593
 
 position of ions in cartesian coordinates  (Angst):
   0.00000000  0.00000000  0.00000000
   0.00000000  0.00000000  1.62106295
 


--------------------------------------------------------------------------------------------------------


 use serial FFT for orbitals x direction half grid
 k-point   1 :   0.0000 0.0000 0.0000  plane waves:    3625

 maximum and minimum number of plane-waves per node :      3625     3625

 maximum number of plane-waves:      3625
 maximum index in each direction: 
   IXMAX=   12   IYMAX=   12   IZMAX=   12
   IXMIN=    0   IYMIN=  -12   IZMIN=  -12


 serial   3D FFT for wavefunctions
 parallel 3D FFT for charge:
    minimum data exchange during FFTs selected (reduces bandwidth)


 FFT grid for exact exchange (Hartree Fock) 
  NGX = 40; NGY = 40; NGZ = 40

 use serial FFT for orbitals x direction half grid
 
 Radii for the augmentation spheres in the non-local exchange
 for species   1 augmentation radius   1.299 (default was   1.039)
       energy cutoff for augmentation   1600.0
 for species   2 augmentation radius   0.735 (default was   0.588)
       energy cutoff for augmentation   1600.0
 Maximum index for augmentation-charges in exchange         1419
  SETUP_FOCK is finished

 total amount of memory used by VASP MPI-rank0   117666. kBytes
=======================================================================

   base      :      30000. kBytes
   nonl-proj :        870. kBytes
   fftplans  :      30736. kBytes
   grid      :      54743. kBytes
   one-center:          8. kBytes
   HF        :         67. kBytes
   nonlr-proj:        369. kBytes
   wavefun   :        873. kBytes
 
     INWAV:  cpu time      0.0011: real time      0.0011
 Broyden mixing: mesh for mixing (old mesh)
   NGX = 25   NGY = 25   NGZ = 25
  (NGX  = 96   NGY  = 96   NGZ  = 96)
  gives a total of  15625 points

 charge density for first step will be calculated from the start-wavefunctions


--------------------------------------------------------------------------------------------------------


 Maximum index for augmentation-charges        10251 (set IRDMAX)


--------------------------------------------------------------------------------------------------------


 initial charge from wavefunction
    FEWALD:  cpu time      0.0000: real time      0.0000


--------------------------------------- Iteration      1(   1)  ---------------------------------------


    POTLOK:  cpu time      0.2802: real time      0.2812
    SETDIJ:  cpu time      0.0056: real time      0.0056
    TRIAL :  cpu time      0.0336: real time      0.0337
    CORREC:  cpu time      0.3123: real time      0.3133
    CHARGE:  cpu time      0.0115: real time      0.0115
    --------------------------------------------
      LOOP:  cpu time      0.6467: real time      0.6490

 eigenvalue-minimisations  :     0
 total energy-change (2. order) :-0.7523118E+01  (-0.2325001E-01)
 number of electron       1.9999999 magnetization 
 augmentation part        0.0153391 magnetization 

 Free energy of the ion-electron system (eV)
  ---------------------------------------------------
  alpha Z        PSCENC =         0.21989830
  Ewald energy   TEWEN  =        -1.93848068
  -Hartree energ DENC   =       -14.68848751
  -exchange      EXHF   =        12.86063537
  -V(xc)+E(xc)   XCENC  =         0.00000000
  PAW double counting   =        16.49313122      -16.50739290
  entropy T*S    EENTRO =         0.00000000
  eigenvalues    EBANDS =       -17.19068854
  atomic energy  EATOM  =        13.22826673
  ---------------------------------------------------
  free energy    TOTEN  =        -7.52311801 eV

  energy without entropy =       -7.52311801  energy(sigma->0) =       -7.52311801
  exchange ACFDT corr.  =         0.00000000  see jH, gK, PRB 81, 115126


--------------------------------------------------------------------------------------------------------




--------------------------------------- Iteration      1(   2)  ---------------------------------------


    POTLOK:  cpu time      0.2765: real time      0.2776
    SETDIJ:  cpu time      0.0056: real time      0.0056
    TRIAL :  cpu time      0.0323: real time      0.0325
    CORREC:  cpu time      0.3112: real time      0.3122
    CHARGE:  cpu time      0.0115: real time      0.0115
    --------------------------------------------
      LOOP:  cpu time      0.6375: real time      0.6398

 eigenvalue-minimisations  :     0
 total energy-change (2. order) :-0.2337526E-01  (-0.5739531E-02)
 number of electron       1.9999999 magnetization 
 augmentation part        0.0150118 magnetization 

 Free energy of the ion-electron system (eV)
  ---------------------------------------------------
  alpha Z        PSCENC =         0.21989830
  Ewald energy   TEWEN  =        -1.93848068
  -Hartree energ DENC   =       -14.57334700
  -exchange      EXHF   =        12.80297812
  -V(xc)+E(xc)   XCENC  =         0.00000000
  PAW double counting   =        17.00548751      -17.01842044
  entropy T*S    EENTRO =         0.00000000
  eigenvalues    EBANDS =       -17.27287581
  atomic energy  EATOM  =        13.22826673
  ---------------------------------------------------
  free energy    TOTEN  =        -7.54649327 eV

  energy without entropy =       -7.54649327  energy(sigma->0) =       -7.54649327
  exchange ACFDT corr.  =         0.00000000  see jH, gK, PRB 81, 115126


--------------------------------------------------------------------------------------------------------




--------------------------------------- Iteration      1(   3)  ---------------------------------------


    POTLOK:  cpu time      0.2825: real time      0.2833
    SETDIJ:  cpu time      0.0058: real time      0.0058
    TRIAL :  cpu time      0.0330: real time      0.0332
    CORREC:  cpu time      0.3151: real time      0.3165
    CHARGE:  cpu time      0.0117: real time      0.0118
    --------------------------------------------
      LOOP:  cpu time      0.6484: real time      0.6509

 eigenvalue-minimisations  :     0
 total energy-change (2. order) :-0.5835008E-02  (-0.1225669E-02)
 number of electron       1.9999999 magnetization 
 augmentation part        0.0151114 magnetization 

 Free energy of the ion-electron system (eV)
  ---------------------------------------------------
  alpha Z        PSCENC =         0.21989830
  Ewald energy   TEWEN  =        -1.93848068
  -Hartree energ DENC   =       -14.53283122
  -exchange      EXHF   =        12.78266159
  -V(xc)+E(xc)   XCENC  =         0.00000000
  PAW double counting   =        17.38643296      -17.39897665
  entropy T*S    EENTRO =         0.00000000
  eigenvalues    EBANDS =       -17.29929930
  atomic energy  EATOM  =        13.22826673
  ---------------------------------------------------
  free energy    TOTEN  =        -7.55232827 eV

  energy without entropy =       -7.55232827  energy(sigma->0) =       -7.55232827
  exchange ACFDT corr.  =         0.00000000  see jH, gK, PRB 81, 115126


--------------------------------------------------------------------------------------------------------




--------------------------------------- Iteration      1(   4)  ---------------------------------------


    POTLOK:  cpu time      0.2765: real time      0.2774
    SETDIJ:  cpu time      0.0056: real time      0.0056
    TRIAL :  cpu time      0.0341: real time      0.0343
    CORREC:  cpu time      0.3116: real time      0.3126
    CHARGE:  cpu time      0.0113: real time      0.0114
    --------------------------------------------
      LOOP:  cpu time      0.6396: real time      0.6417

 eigenvalue-minimisations  :     0
 total energy-change (2. order) :-0.1303397E-02  (-0.6310204E-03)
 number of electron       1.9999999 magnetization 
 augmentation part        0.0151740 magnetization 

 Free energy of the ion-electron system (eV)
  ---------------------------------------------------
  alpha Z        PSCENC =         0.21989830
  Ewald energy   TEWEN  =        -1.93848068
  -Hartree energ DENC   =       -14.59315727
  -exchange      EXHF   =        12.81281999
  -V(xc)+E(xc)   XCENC  =         0.00000000
  PAW double counting   =        17.61115818      -17.62362221
  entropy T*S    EENTRO =         0.00000000
  eigenvalues    EBANDS =       -17.27051470
  atomic energy  EATOM  =        13.22826673
  ---------------------------------------------------
  free energy    TOTEN  =        -7.55363167 eV

  energy without entropy =       -7.55363167  energy(sigma->0) =       -7.55363167
  exchange ACFDT corr.  =         0.00000000  see jH, gK, PRB 81, 115126


--------------------------------------------------------------------------------------------------------




--------------------------------------- Iteration      1(   5)  ---------------------------------------


    POTLOK:  cpu time      0.2766: real time      0.2778
    SETDIJ:  cpu time      0.0056: real time      0.0056
    TRIAL :  cpu time      0.0335: real time      0.0336
    CORREC:  cpu time      0.3096: real time      0.3107
    CHARGE:  cpu time      0.0115: real time      0.0115
    --------------------------------------------
      LOOP:  cpu time      0.6372: real time      0.6412

 eigenvalue-minimisations  :     0
 total energy-change (2. order) :-0.6873183E-03  (-0.2561831E-03)
 number of electron       1.9999999 magnetization 
 augmentation part        0.0151680 magnetization 

 Free energy of the ion-electron system (eV)
  ---------------------------------------------------
  alpha Z        PSCENC =         0.21989830
  Ewald energy   TEWEN  =        -1.93848068
  -Hartree energ DENC   =       -14.65237184
  -exchange      EXHF   =        12.84243537
  -V(xc)+E(xc)   XCENC  =         0.00000000
  PAW double counting   =        17.56650120      -17.57900719
  entropy T*S    EENTRO =         0.00000000
  eigenvalues    EBANDS =       -17.24156088
  atomic energy  EATOM  =        13.22826673
  ---------------------------------------------------
  free energy    TOTEN  =        -7.55431899 eV

  energy without entropy =       -7.55431899  energy(sigma->0) =       -7.55431899
  exchange ACFDT corr.  =         0.00000000  see jH, gK, PRB 81, 115126


--------------------------------------------------------------------------------------------------------




--------------------------------------- Iteration      1(   6)  ---------------------------------------


    POTLOK:  cpu time      0.2800: real time      0.2809
    SETDIJ:  cpu time      0.0056: real time      0.0057
    TRIAL :  cpu time      0.0324: real time      0.0325
    CORREC:  cpu time      0.3113: real time      0.3126
    CHARGE:  cpu time      0.0116: real time      0.0117
    --------------------------------------------
      LOOP:  cpu time      0.6414: real time      0.6440

 eigenvalue-minimisations  :     0
 total energy-change (2. order) :-0.2660016E-03  (-0.1403832E-03)
 number of electron       1.9999999 magnetization 
 augmentation part        0.0152107 magnetization 

 Free energy of the ion-electron system (eV)
  ---------------------------------------------------
  alpha Z        PSCENC =         0.21989830
  Ewald energy   TEWEN  =        -1.93848068
  -Hartree energ DENC   =       -14.67695505
  -exchange      EXHF   =        12.85473346
  -V(xc)+E(xc)   XCENC  =         0.00000000
  PAW double counting   =        17.44708548      -17.45965123
  entropy T*S    EENTRO =         0.00000000
  eigenvalues    EBANDS =       -17.22948200
  atomic energy  EATOM  =        13.22826673
  ---------------------------------------------------
  free energy    TOTEN  =        -7.55458499 eV

  energy without entropy =       -7.55458499  energy(sigma->0) =       -7.55458499
  exchange ACFDT corr.  =         0.00000000  see jH, gK, PRB 81, 115126


--------------------------------------------------------------------------------------------------------




--------------------------------------- Iteration      1(   7)  ---------------------------------------


    POTLOK:  cpu time      0.2762: real time      0.2770
    SETDIJ:  cpu time      0.0056: real time      0.0056
    TRIAL :  cpu time      0.0336: real time      0.0337
    CORREC:  cpu time      0.3109: real time      0.3120
    CHARGE:  cpu time      0.0116: real time      0.0116
    --------------------------------------------
      LOOP:  cpu time      0.6382: real time      0.6403

 eigenvalue-minimisations  :     0
 total energy-change (2. order) :-0.1469566E-03  (-0.4388909E-04)
 number of electron       1.9999999 magnetization 
 augmentation part        0.0151825 magnetization 

 Free energy of the ion-electron system (eV)
  ---------------------------------------------------
  alpha Z        PSCENC =         0.21989830
  Ewald energy   TEWEN  =        -1.93848068
  -Hartree energ DENC   =       -14.70092583
  -exchange      EXHF   =        12.86672177
  -V(xc)+E(xc)   XCENC  =         0.00000000
  PAW double counting   =        17.45463971      -17.46719686
  entropy T*S    EENTRO =         0.00000000
  eigenvalues    EBANDS =       -17.21765510
  atomic energy  EATOM  =        13.22826673
  ---------------------------------------------------
  free energy    TOTEN  =        -7.55473195 eV

  energy without entropy =       -7.55473195  energy(sigma->0) =       -7.55473195
  exchange ACFDT corr.  =         0.00000000  see jH, gK, PRB 81, 115126


--------------------------------------------------------------------------------------------------------




--------------------------------------- Iteration      1(   8)  ---------------------------------------


    POTLOK:  cpu time      0.2808: real time      0.2819
    SETDIJ:  cpu time      0.0060: real time      0.0060
    TRIAL :  cpu time      0.0339: real time      0.0340
    CORREC:  cpu time      0.3138: real time      0.3147
    CHARGE:  cpu time      0.0117: real time      0.0118
    --------------------------------------------
      LOOP:  cpu time      0.6465: real time      0.6488

 eigenvalue-minimisations  :     0
 total energy-change (2. order) :-0.4444798E-04  (-0.7105612E-05)
 number of electron       1.9999999 magnetization 
 augmentation part        0.0151830 magnetization 

 Free energy of the ion-electron system (eV)
  ---------------------------------------------------
  alpha Z        PSCENC =         0.21989830
  Ewald energy   TEWEN  =        -1.93848068
  -Hartree energ DENC   =       -14.71097174
  -exchange      EXHF   =        12.87174392
  -V(xc)+E(xc)   XCENC  =         0.00000000
  PAW double counting   =        17.48747700      -17.50003808
  entropy T*S    EENTRO =         0.00000000
  eigenvalues    EBANDS =       -17.21267185
  atomic energy  EATOM  =        13.22826673
  ---------------------------------------------------
  free energy    TOTEN  =        -7.55477639 eV

  energy without entropy =       -7.55477639  energy(sigma->0) =       -7.55477639
  exchange ACFDT corr.  =         0.00000000  see jH, gK, PRB 81, 115126


--------------------------------------------------------------------------------------------------------




--------------------------------------- Iteration      1(   9)  ---------------------------------------


    POTLOK:  cpu time      0.2765: real time      0.2773
    SETDIJ:  cpu time      0.0056: real time      0.0056
    TRIAL :  cpu time      0.0324: real time      0.0325
    CORREC:  cpu time      0.3112: real time      0.3123
    CHARGE:  cpu time      0.0116: real time      0.0117
    --------------------------------------------
      LOOP:  cpu time      0.6376: real time      0.6397

 eigenvalue-minimisations  :     0
 total energy-change (2. order) :-0.7111261E-05  (-0.5473288E-06)
 number of electron       1.9999999 magnetization 
 augmentation part        0.0151791 magnetization 

 Free energy of the ion-electron system (eV)
  ---------------------------------------------------
  alpha Z        PSCENC =         0.21989830
  Ewald energy   TEWEN  =        -1.93848068
  -Hartree energ DENC   =       -14.71156672
  -exchange      EXHF   =        12.87204021
  -V(xc)+E(xc)   XCENC  =         0.00000000
  PAW double counting   =        17.50184900      -17.51439023
  entropy T*S    EENTRO =         0.00000000
  eigenvalues    EBANDS =       -17.21240011
  atomic energy  EATOM  =        13.22826673
  ---------------------------------------------------
  free energy    TOTEN  =        -7.55478351 eV

  energy without entropy =       -7.55478351  energy(sigma->0) =       -7.55478351
  exchange ACFDT corr.  =         0.00000000  see jH, gK, PRB 81, 115126


--------------------------------------------------------------------------------------------------------




--------------------------------------- Iteration      1(  10)  ---------------------------------------


    POTLOK:  cpu time      0.2759: real time      0.2767
    SETDIJ:  cpu time      0.0056: real time      0.0056
    TRIAL :  cpu time      0.0327: real time      0.0329
    CORREC:  cpu time      0.3097: real time      0.3107
    EDDIAG:  cpu time      0.0167: real time      0.0168
    CHARGE:  cpu time      0.0118: real time      0.0118
    --------------------------------------------
      LOOP:  cpu time      0.6527: real time      0.6549

 eigenvalue-minimisations  :     0
 total energy-change (2. order) :-0.5473351E-06  (-0.1520259E-06)
 number of electron       1.9999999 magnetization 
 augmentation part        0.0151808 magnetization 

 Free energy of the ion-electron system (eV)
  ---------------------------------------------------
  alpha Z        PSCENC =         0.21989830
  Ewald energy   TEWEN  =        -1.93848068
  -Hartree energ DENC   =       -14.71121973
  -exchange      EXHF   =        12.87196298
  -V(xc)+E(xc)   XCENC  =         0.00000000
  PAW double counting   =        17.50122972      -17.51376925
  entropy T*S    EENTRO =         0.00000000
  eigenvalues    EBANDS =       -17.21257556
  atomic energy  EATOM  =        13.22826673
  ---------------------------------------------------
  free energy    TOTEN  =        -7.55478405 eV

  energy without entropy =       -7.55478405  energy(sigma->0) =       -7.55478405
  exchange ACFDT corr.  =         0.00000000  see jH, gK, PRB 81, 115126


--------------------------------------------------------------------------------------------------------


  average scaling for gradient   1.0945


 average (electrostatic) potential at core
  the test charge radii are     1.0393  0.5883
  (the norm of the test charge is              1.0000)
       1   2.1474       2 -18.0613
 
 
 
 E-fermi :  -8.6406     XC(G=0):   0.0000     alpha+bet : -0.3321

 Fermi energy:        -8.6405602607

 k-point     1 :       0.0000    0.0000    0.0000
  band No.  band energies     occupation 
      1      -8.6063      2.00000
      2       0.1029      0.00000
      3       2.0872      0.00000
      4       2.2608      0.00000
      5       2.2608      0.00000


--------------------------------------------------------------------------------------------------------


 soft charge-density along one line, spin component           1
         0         1         2         3         4         5         6         7         8         9
 total charge-density along one line
 
 pseudopotential strength for first ion, spin component:           1
  0.613  -3.123   0.000  -0.030   0.000  -0.000   0.103  -0.000
 -3.123  16.834  -0.000   0.086  -0.000   0.000  -0.410   0.000
  0.000  -0.000  -4.241  -0.000  -0.000   8.091  -0.000  -0.000
 -0.030   0.086  -0.000  -4.236  -0.000  -0.000   8.101  -0.000
  0.000  -0.000  -0.000  -0.000  -4.241  -0.000  -0.000   8.091
 -0.000   0.000   8.091  -0.000  -0.000 -42.571   0.000   0.000
  0.103  -0.410  -0.000   8.101  -0.000   0.000 -42.624   0.000
 -0.000   0.000  -0.000  -0.000   8.091   0.000   0.000 -42.571
  0.000  -0.000  -0.000  -0.000  -0.000  -0.000  -0.000  -0.000
  0.000  -0.000   0.004  -0.000  -0.000   0.024  -0.000  -0.000
 -0.002   0.004   0.000   0.005   0.000   0.000   0.028   0.000
  0.000  -0.000  -0.000  -0.000   0.004  -0.000  -0.000   0.024
 -0.000   0.000   0.000   0.000  -0.000   0.000   0.000  -0.000
 total augmentation occupancy for first ion, spin component:           1
  1.083   0.030  -0.000   0.392  -0.000   0.000   0.019   0.000   0.000   0.000   0.154   0.000   0.000
  0.030   0.001  -0.000   0.011  -0.000   0.000   0.001   0.000   0.000   0.000   0.004   0.000   0.000
 -0.000  -0.000   0.000  -0.000   0.000  -0.000  -0.000  -0.000  -0.000  -0.000  -0.000  -0.000  -0.000
  0.392   0.011  -0.000   0.142  -0.000   0.000   0.007   0.000   0.000   0.000   0.056   0.000   0.000
 -0.000  -0.000   0.000  -0.000   0.000  -0.000  -0.000  -0.000  -0.000  -0.000  -0.000  -0.000  -0.000
  0.000   0.000  -0.000   0.000  -0.000   0.000   0.000   0.000   0.000   0.000   0.000   0.000   0.000
  0.019   0.001  -0.000   0.007  -0.000   0.000   0.000   0.000   0.000   0.000   0.003   0.000   0.000
  0.000   0.000  -0.000   0.000  -0.000   0.000   0.000   0.000   0.000   0.000   0.000   0.000   0.000
  0.000   0.000  -0.000   0.000  -0.000   0.000   0.000   0.000   0.000   0.000   0.000   0.000   0.000
  0.000   0.000  -0.000   0.000  -0.000   0.000   0.000   0.000   0.000   0.000   0.000   0.000   0.000
  0.154   0.004  -0.000   0.056  -0.000   0.000   0.003   0.000   0.000   0.000   0.022   0.000   0.000
  0.000   0.000  -0.000   0.000  -0.000   0.000   0.000   0.000   0.000   0.000   0.000   0.000   0.000
  0.000   0.000  -0.000   0.000  -0.000   0.000   0.000   0.000   0.000   0.000   0.000   0.000   0.000


------------------------ aborting loop because EDIFF is reached ----------------------------------------


    FORLOC:  cpu time      0.0225: real time      0.0225
    FORHF :  cpu time      0.0046: real time      0.0046
    FORNL :  cpu time      0.0073: real time      0.0073
    FORCOR:  cpu time      0.2680: real time      0.2691
    OFIELD:  cpu time      0.0011: real time      0.0011

 VOLUME and BASIS-vectors are now :
 -----------------------------------------------------------------------------
  energy-cutoff  :      400.00
  volume of cell :      406.54
      direct lattice vectors                 reciprocal lattice vectors
     7.408002056  0.000000000  0.000000000     0.134989163  0.000000000  0.000000000
     0.000000000  7.408002056  0.000000000     0.000000000  0.134989163  0.000000000
     0.000000000  0.000000000  7.408002056     0.000000000  0.000000000  0.134989163

  length of vectors
     7.408002056  7.408002056  7.408002056     0.134989163  0.134989163  0.134989163


 FORCES acting on ions:
    Electron-Ion                     Ewald-Force                    Non-Local-Force
 -----------------------------------------------------------------------------------------------
   -.766E-10 -.379E-09 0.619E+01   0.460E-17 0.361E-17 -.520E+01   0.716E-10 0.368E-09 -.110E+01
   -.203E-09 -.966E-09 -.411E+01   -.286E-17 -.210E-17 0.520E+01   -.169E-10 -.911E-10 -.853E+00
 -----------------------------------------------------------------------------------------------
   -.279E-09 -.134E-08 0.208E+01   0.174E-17 0.151E-17 0.000E+00   0.547E-10 0.277E-09 -.195E+01
 
 
 POSITION                                       TOTAL-FORCE (eV/Angst)
 -----------------------------------------------------------------------------------
      0.00000      0.00000      0.00000         0.000000      0.000000     -0.172558
      0.00000      0.00000      1.62106        -0.000000     -0.000000      0.172558
 -----------------------------------------------------------------------------------
    total drift:                               -0.000000     -0.000000      0.000003


--------------------------------------------------------------------------------------------------------



  FREE ENERGIE OF THE ION-ELECTRON SYSTEM (eV)
  ---------------------------------------------------
  free  energy   TOTEN  =        -7.55478405 eV

  energy  without entropy=       -7.55478405  energy(sigma->0) =       -7.55478405
 


--------------------------------------------------------------------------------------------------------


    POTLOK:  cpu time      0.2856: real time      0.2865


--------------------------------------------------------------------------------------------------------


 writing wavefunctions
     LOOP+:  cpu time      7.8020: real time      7.8553
    4ORBIT:  cpu time      0.0000: real time      0.0000

 total amount of memory used by VASP MPI-rank0   128488. kBytes
=======================================================================

   base      :      30000. kBytes
   nonl-proj :        870. kBytes
   fftplans  :      30736. kBytes
   grid      :      54743. kBytes
   one-center:          8. kBytes
   HF        :         67. kBytes
   nonlr-proj:        369. kBytes
   wavefun   :        873. kBytes
   fock_wrk  :      10822. kBytes
 
  
  
 General timing and accounting informations for this job:
 ========================================================
  
                  Total CPU time used (sec):        9.369
                            User time (sec):        8.242
                          System time (sec):        1.126
                         Elapsed time (sec):        9.561
  
                   Maximum memory used (kb):      236168.
                   Average memory used (kb):          N/A
  
                          Minor page faults:       117748
                          Major page faults:         1059
                 Voluntary context switches:          892
