 vasp.6.3.0 20Jan22 (build Mar 06 2023 08:06:32) gamma-only                     
  
 executed on             LinuxIFC date 2025.05.22  11:34:45
 running on   48 total cores
 distrk:  each k-point on   48 cores,    1 groups
 distr:  one band on NCORE=   1 cores,   48 groups


--------------------------------------------------------------------------------------------------------


 INCAR:
   ENCUT = 400
   SIGMA = 0.001
   EDIFF = 1E-6
   LHFCALC = .TRUE.
   AEXX = 1.0
   ISYM = -1
   ALGO = sub
   NELM = 1
   NBANDS = 2721
   ISYM = -1
   PREC = Accurate

 POTCAR:    PAW_PBE Li_GW 23Jun2021               
 POTCAR:    PAW_PBE H_GW 21Apr2008                
 -----------------------------------------------------------------------------
|                                                                             |
|           W    W    AA    RRRRR   N    N  II  N    N   GGGG   !!!           |
|           W    W   A  A   R    R  NN   N  II  NN   N  G    G  !!!           |
|           W    W  A    A  R    R  N N  N  II  N N  N  G       !!!           |
|           W WW W  AAAAAA  RRRRR   N  N N  II  N  N N  G  GGG   !            |
|           WW  WW  A    A  R   R   N   NN  II  N   NN  G    G                |
|           W    W  A    A  R    R  N    N  II  N    N   GGGG   !!!           |
|                                                                             |
|     For optimal performance we recommend to set                             |
|       NCORE = 2 up to number-of-cores-per-socket                            |
|     NCORE specifies how many cores store one orbital (NPAR=cpu/NCORE).      |
|     This setting can greatly improve the performance of VASP for DFT.       |
|     The default, NCORE=1 might be grossly inefficient on modern             |
|     multi-core architectures or massively parallel machines. Do your        |
|     own testing! More info at https://www.vasp.at/wiki/index.php/NCORE      |
|     Unfortunately you need to use the default for GW and RPA                |
|     calculations (for HF NCORE is supported but not extensively tested      |
|     yet).                                                                   |
|                                                                             |
 -----------------------------------------------------------------------------

 POTCAR:    PAW_PBE Li_GW 23Jun2021               
   SHA256 =  8825fb35c7e4969bc2ee643901f25156348bca79849b21eacd5f3f060d4d23e8 Li_GW/POTCAR          
   COPYR  = (c) Copyright 23Jun2021 Georg Kresse                                                    
   COPYR  = This file is part of the software VASP. Any use, copying, and all other rights are regul
   COPYR  = If you do not have a valid VASP license, you may not use, copy or distribute this file. 
   VRHFIN =Li: s1p0                                                                                 
   LEXCH  = PE                                                                                      
   EATOM  =     5.3001 eV,    0.3895 Ry                                                             
                                                                                                    
   TITEL  = PAW_PBE Li_GW 23Jun2021                                                                 
   LULTRA =        F    use ultrasoft PP ?                                                          
   IUNSCR =        1    unscreen: 0-lin 1-nonlin 2-no                                               
   RPACOR =    1.500    partial core radius                                                         
   POMASS =    7.010; ZVAL   =    1.000    mass and valenz                                          
   RCORE  =    2.100    outmost cutoff radius                                                       
   RWIGS  =    2.600; RWIGS  =    1.376    wigner-seitz radius (au A)                               
   ENMAX  =  112.104; ENMIN  =   84.078 eV                                                          
   RCLOC  =    2.012    cutoff for local pot                                                        
   LCOR   =        T    correct aug charges                                                         
   LPAW   =        T    paw PP                                                                      
   EAUG   =  483.286                                                                                
   DEXC   =   -0.000                                                                                
   RMAX   =    2.149    core radius for proj-oper                                                   
   RAUG   =    1.300    factor for augmentation sphere                                              
   RDEP   =    2.232    radius for radial grids                                                     
   RDEPT  =    1.854    core radius for aug-charge                                                  
                                                                                                    
   Atomic configuration                                                                             
    4 entries                                                                                       
     n  l   j            E        occ.                                                              
     1  0  0.50       -51.8549   2.0000                                                             
     2  0  0.50        -2.8742   1.0000                                                             
     2  1  0.50        -2.8708   0.0000                                                             
     3  2  1.50        -1.3606   0.0000                                                             
   Description                                                                                      
     l       E           TYP  RCUT    TYP  RCUT                                                     
     0     -2.8742051     23  2.100                                                                 
     0     54.4233040     23  2.100                                                                 
     1     -2.8708293     23  2.050                                                                 
     1     54.4233040     23  2.050                                                                 
     2     -1.3605826     23  2.050                                                                 
  local pseudopotential read in
  partial core-charges read in
  partial kinetic energy density read in
  kinetic energy density of atom read in
  atomic valenz-charges read in
  non local Contribution for L=           0  read in
    real space projection operators read in
  non local Contribution for L=           0  read in
    real space projection operators read in
  non local Contribution for L=           1  read in
    real space projection operators read in
  non local Contribution for L=           1  read in
    real space projection operators read in
  non local Contribution for L=           2  read in
    real space projection operators read in
    PAW grid and wavefunctions read in
 
   number of l-projection  operators is LMAX  =           5
   number of lm-projection operators is LMMAX =          13
 
 POTCAR:    PAW_PBE H_GW 21Apr2008                
   SHA256 =  cecc88617a3d1ece9865646f5d462fc0f44fd1f68d6f2eb08f18a2e421902afb H_GW/POTCAR           
   COPYR  = (c) Copyright 21Apr2008 Georg Kresse                                                    
   COPYR  = This file is part of the software VASP. Any use, copying, and all other rights are regul
   COPYR  = If you do not have a valid VASP license, you may not use, copy or distribute this file. 
   VRHFIN =H: ultrasoft test                                                                        
   LEXCH  = PE                                                                                      
   EATOM  =    12.4884 eV,    0.9179 Ry                                                             
                                                                                                    
   TITEL  = PAW_PBE H_GW 21Apr2008                                                                  
   LULTRA =        F    use ultrasoft PP ?                                                          
   IUNSCR =        0    unscreen: 0-lin 1-nonlin 2-no                                               
   RPACOR =    0.000    partial core radius                                                         
   POMASS =    1.000; ZVAL   =    1.000    mass and valenz                                          
   RCORE  =    1.100    outmost cutoff radius                                                       
   RWIGS  =    1.100; RWIGS  =    0.582    wigner-seitz radius (au A)                               
   ENMAX  =  300.000; ENMIN  =  250.000 eV                                                          
   RCLOC  =    0.701    cutoff for local pot                                                        
   LCOR   =        T    correct aug charges                                                         
   LPAW   =        T    paw PP                                                                      
   EAUG   =  500.000                                                                                
   RMAX   =    1.123    core radius for proj-oper                                                   
   RAUG   =    1.200    factor for augmentation sphere                                              
   RDEP   =    1.112    radius for radial grids                                                     
   RDEPT  =    1.100    core radius for aug-charge                                                  
                                                                                                    
   Atomic configuration                                                                             
    3 entries                                                                                       
     n  l   j            E        occ.                                                              
     1  0  0.50        -6.4927   1.0000                                                             
     2  1  0.50        -3.4015   0.0000                                                             
     3  2  1.50        13.6058   0.0000                                                             
   Description                                                                                      
     l       E           TYP  RCUT    TYP  RCUT                                                     
     0     -6.4927495     23  0.950                                                                 
     0      6.8029130     23  0.950                                                                 
     1     -4.0817478     23  1.100                                                                 
     1    108.8466080     23  1.100                                                                 
     2     81.6349560     23  1.100                                                                 
  local pseudopotential read in
  kinetic energy density of atom read in
  atomic valenz-charges read in
  non local Contribution for L=           0  read in
    real space projection operators read in
  non local Contribution for L=           0  read in
    real space projection operators read in
  non local Contribution for L=           1  read in
    real space projection operators read in
  non local Contribution for L=           1  read in
    real space projection operators read in
  non local Contribution for L=           2  read in
    real space projection operators read in
    PAW grid and wavefunctions read in
 
   number of l-projection  operators is LMAX  =           5
   number of lm-projection operators is LMMAX =          13
 
  PAW_PBE Li_GW 23Jun2021               :
 energy of atom  1       EATOM=   -5.3001
 kinetic energy error for atom=    0.0000 (will be added to EATOM!!)
  PAW_PBE H_GW 21Apr2008                :
 energy of atom  2       EATOM=  -12.4884
 kinetic energy error for atom=    0.0317 (will be added to EATOM!!)
 
 
 POSCAR: LiH
  positions in cartesian coordinates
  No initial velocities read in
 exchange correlation table for  LEXCH =        8
   RHO(1)=    0.500       N(1)  =     2000
   RHO(2)=  100.500       N(2)  =     4000
 


--------------------------------------------------------------------------------------------------------


 ion  position               nearest neighbor table
   1  0.000  0.000  0.000-   2 1.62
   2  0.000  0.000  0.306-   1 1.62
 

IMPORTANT INFORMATION: All symmetrisations will be switched off!
NOSYMM: (Re-)initialisation of all symmetry stuff for point group C_1.


----------------------------------------------------------------------------------------

                                     Primitive cell                                     

  volume of cell :     148.2000

  direct lattice vectors                    reciprocal lattice vectors
     5.291954090  0.000000000  0.000000000     0.188966114  0.000000000  0.000000000
     0.000000000  5.291954090  0.000000000     0.000000000  0.188966114  0.000000000
     0.000000000  0.000000000  5.291954090     0.000000000  0.000000000  0.188966114

  length of vectors
     5.291954090  5.291954090  5.291954090     0.188966114  0.188966114  0.188966114

  position of ions in fractional coordinates (direct lattice)
     0.000000000  0.000000000  0.000000000
     0.000000000  0.000000000  0.306325966

  ion indices of the primitive-cell ions
   primitive index   ion index
                 1           1
                 2           2

----------------------------------------------------------------------------------------

 
 
 KPOINTS: Automatically generated mesh            

Automatic generation of k-mesh.
 Grid dimensions read from file:
 generate k-points for:    1    1    1

 Generating k-lattice:

  Cartesian coordinates                     Fractional coordinates (reciprocal lattice)
     0.188966114  0.000000000  0.000000000     1.000000000  0.000000000  0.000000000
     0.000000000  0.188966114  0.000000000     0.000000000  1.000000000  0.000000000
     0.000000000  0.000000000  0.188966114     0.000000000  0.000000000  1.000000000

  Length of vectors
     0.188966114  0.188966114  0.188966114

  Shift w.r.t. Gamma in fractional coordinates (k-lattice)
     0.000000000  0.000000000  0.000000000

 
 Subroutine IBZKPT returns following result:
 ===========================================
 
 Found      1 irreducible k-points:
 
 Following reciprocal coordinates:
            Coordinates               Weight
  0.000000  0.000000  0.000000      1.000000
 
 Following cartesian coordinates:
            Coordinates               Weight
  0.000000  0.000000  0.000000      1.000000
 
 WARNING: full set of k-points will be restricted to regular points only.

 
 Subroutine IBZKPT_HF returns following result:
 ==============================================
 
 Found      1 k-points in 1st BZ
 the following      1 k-points will be used (e.g. in the exchange kernel)
 Following reciprocal coordinates:   # in IRBZ
  0.000000  0.000000  0.000000    1.00000000   1 t-inv F
 -----------------------------------------------------------------------------
|                                                                             |
|           W    W    AA    RRRRR   N    N  II  N    N   GGGG   !!!           |
|           W    W   A  A   R    R  NN   N  II  NN   N  G    G  !!!           |
|           W    W  A    A  R    R  N N  N  II  N N  N  G       !!!           |
|           W WW W  AAAAAA  RRRRR   N  N N  II  N  N N  G  GGG   !            |
|           WW  WW  A    A  R   R   N   NN  II  N   NN  G    G                |
|           W    W  A    A  R    R  N    N  II  N    N   GGGG   !!!           |
|                                                                             |
|     The number of bands has been changed from the values supplied in        |
|     the INCAR file. This is a result of running the parallel version.       |
|     The orbitals not found in the WAVECAR file will be initialized with     |
|     random numbers, which is usually adequate. For correlated               |
|     calculations, however, you should redo the groundstate calculation.     |
|     I found NBANDS = 2721. Now, NBANDS = 2736.                              |
|                                                                             |
 -----------------------------------------------------------------------------



--------------------------------------------------------------------------------------------------------




 Dimension of arrays:
   k-points           NKPTS =      1   k-points in BZ     NKDIM =      1   number of bands    NBANDS=   2736
   number of dos      NEDOS =    301   number of ions     NIONS =      2
   non local maximal  LDIM  =      5   non local SUM 2l+1 LMDIM =     13
   total plane-waves  NPLWV =  46656
   max r-space proj   IRMAX =      1   max aug-charges    IRDMAX=  12404
   dimension x,y,z NGX =    36 NGY =   36 NGZ =   36
   dimension x,y,z NGXF=    72 NGYF=   72 NGZF=   72
   support grid    NGXF=    72 NGYF=   72 NGZF=   72
   ions per type =               1   1
   NGX,Y,Z   is equivalent  to a cutoff of  11.31, 11.31, 11.31 a.u.
   NGXF,Y,Z  is equivalent  to a cutoff of  22.62, 22.62, 22.62 a.u.

 SYSTEM =  unknown system                          
 POSCAR =  LiH                                     

 Startparameter for this run:
   NWRITE =      2    write-flag & timer
   PREC   = accura    normal or accurate (medium, high low for compatibility)
   ISTART =      1    job   : 0-new  1-cont  2-samecut
   ICHARG =      0    charge: 1-file 2-atom 10-const
   ISPIN  =      1    spin polarized calculation?
   LNONCOLLINEAR =      F non collinear calculations
   LSORBIT =      F    spin-orbit coupling
   INIWAV =      1    electr: 0-lowe 1-rand  2-diag
   LASPH  =      F    aspherical Exc in radial PAW
 Electronic Relaxation 1
   ENCUT  =  400.0 eV  29.40 Ry    5.42 a.u.   8.63  8.63  8.63*2*pi/ulx,y,z
   ENINI  =  400.0     initial cutoff
   ENAUG  =  500.0 eV  augmentation charge cutoff
   NELM   =      1;   NELMIN=  2; NELMDL=  0     # of ELM steps 
   EDIFF  = 0.1E-05   stopping-criterion for ELM
   LREAL  =      F    real-space projection
   NLSPLINE    = F    spline interpolate recip. space projectors
   LCOMPAT=      F    compatible to vasp.4.4
   GGA_COMPAT  = T    GGA compatible to vasp.4.4-vasp.4.6
   LMAXPAW     = -100 max onsite density
   LMAXMIX     =    2 max onsite mixed and CHGCAR
   VOSKOWN=      0    Vosko Wilk Nusair interpolation
   ROPT   =    0.00000   0.00000
 Ionic relaxation
   EDIFFG = 0.1E-04   stopping-criterion for IOM
   NSW    =      0    number of steps for IOM
   NBLOCK =      1;   KBLOCK =      1    inner block; outer block 
   IBRION =     -1    ionic relax: 0-MD 1-quasi-New 2-CG
   NFREE  =      0    steps in history (QN), initial steepest desc. (CG)
   ISIF   =      0    stress and relaxation
   IWAVPR =     10    prediction:  0-non 1-charg 2-wave 3-comb
   ISYM   =     -1    0-nonsym 1-usesym 2-fastsym
   LCORR  =      T    Harris-Foulkes like correction to forces

   POTIM  = 0.5000    time-step for ionic-motion
   TEIN   =    0.0    initial temperature
   TEBEG  =    0.0;   TEEND  =   0.0 temperature during run
   SMASS  =  -3.00    Nose mass-parameter (am)
   estimated Nose-frequenzy (Omega)   =  0.10E-29 period in steps = 0.13E+47 mass=  -0.640E-27a.u.
   SCALEE = 1.0000    scale energy and forces
   NPACO  =    256;   APACO  = 10.0  distance and # of slots for P.C.
   PSTRESS=    0.0 pullay stress

  Mass of Ions in am
   POMASS =   7.01  1.00
  Ionic Valenz
   ZVAL   =   1.00  1.00
  Atomic Wigner-Seitz radii
   RWIGS  =  -1.00 -1.00
  virtual crystal weights 
   VCA    =   1.00  1.00
   NELECT =       2.0000    total number of electrons
   NUPDOWN=      -1.0000    fix difference up-down

 DOS related values:
   EMIN   =  10.00;   EMAX   =-10.00  energy-range for DOS
   EFERMI =   0.00
   ISMEAR =     1;   SIGMA  =   0.00  broadening in eV -4-tet -1-fermi 0-gaus

 Electronic relaxation 2 (details)
   IALGO  =      4    algorithm
   LDIAG  =      T    sub-space diagonalisation (order eigenvalues)
   LSUBROT=      F    optimize rotation matrix (better conditioning)
   TURBO    =      0    0=normal 1=particle mesh
   IRESTART =      0    0=no restart 2=restart with 2 vectors
   NREBOOT  =      0    no. of reboots
   NMIN     =      0    reboot dimension
   EREF     =   0.00    reference energy to select bands
   IMIX   =      1    mixing-type and parameters
     AMIX     =   0.40;   BMIX     =  1.00
     AMIX_MAG =   1.60;   BMIX_MAG =  1.00
     AMIN     =   0.10
     WC   =   100.;   INIMIX=   1;  MIXPRE=   1;  MAXMIX= -45

 Intra band minimization:
   WEIMIN = 0.0000     energy-eigenvalue tresh-hold
   EBREAK =  0.91E-10  absolut break condition
   DEPER  =   0.30     relativ break condition  

   TIME   =   0.40     timestep for ELM

  volume/ion in A,a.u.               =      74.10       500.05
  Fermi-wavevector in a.u.,A,eV,Ry     =   0.389764  0.736548  2.066946  0.151916
  Thomas-Fermi vector in A             =   1.331236
 
 Write flags
   LWAVE        =      T    write WAVECAR
   LDOWNSAMPLE  =      F    k-point downsampling of WAVECAR
   LCHARG       =      T    write CHGCAR
   LVTOT        =      F    write LOCPOT, total local potential
   LVHAR        =      F    write LOCPOT, Hartree potential only
   LELF         =      F    write electronic localiz. function (ELF)
   LORBIT       =      0    0 simple, 1 ext, 2 COOP (PROOUT), +10 PAW based schemes


 Dipole corrections
   LMONO  =      F    monopole corrections only (constant potential shift)
   LDIPOL =      F    correct potential (dipole corrections)
   IDIPOL =      0    1-x, 2-y, 3-z, 4-all directions 
   EPSILON=  1.0000000 bulk dielectric constant

 Exchange correlation treatment:
   GGA     =    --    GGA type
   LEXCH   =     8    internal setting for exchange type
   LIBXC   =     F    Libxc                    
   VOSKOWN =     0    Vosko Wilk Nusair interpolation
   EXXOEP  =     0    0=HF, 1=EXX-LHF (local Hartree Fock) 2=EXX OEP
   LHFCALC =     T    Hartree Fock is set to
   LSYMGRAD=     F    symmetrize gradient (conserves proper symmetry)
   PRECFOCK=normal    Normal, Fast or Accurate (Low or Medium for compatibility)
   LRHFCALC=     F    long range Hartree Fock
   LRSCOR  =     F    long range correlation only (use DFT for short range part)
   LTHOMAS =     F    Thomas Fermi screening in HF
   LMODELHF=     F    short range full HF, long range fraction AEXX
   LFOCKACE=     T    use Adeptively-Compressed-Exchange operator
   ENCUT4O =  -1.0   cutoff for four orbital integrals eV
   LMAXFOCK=     4    L truncation for augmentation on plane wave grid
   LMAXFOCKAE=  -1    L truncation for all-electron charge restoration on plane wave grid
   NMAXFOCKAE=   1    number of basis functions for all-electron charge restoration
   LFOCKAEDFT=     F  apply the AE augmentation even for DFT
   NKREDX  =     1    reduce k-point grid by
   NKREDY  =     1    reduce k-point grid by
   NKREDZ  =     1    reduce k-point grid by
   SHIFTRED=     F    shift reduced grid of Gamma
   HFKIDENT=     F    idential grid for each k-point
   ODDONLY =     F    use only odd q-grid points
   EVENONLY=     F    use only even q-grid points
   HFALPHA =   -1.0000 decay constant for conv. correction
   MCALPHA =    0.0000 extent of test-charge in conv. correction in multipole expansion
   AEXX    =    1.0000 exact exchange contribution
   HFSCREEN=    0.0000 screening length (either q_TF or 0.3 A-1)
   HFSCREENC=   0.0000 screening length for correlation (either q_TF or 0.3 A-1)
   HFRCUT  =    0.0000 spherical cutoff for potential kernel
   HFRCUTSOFT=    0.0000 smooth spherical cutoff for potential kernel
   SLABRCUT=    0.0000 cutoff in one direction for potential kernel
   SLABRCUT_DIRECTION=   3 cutoff direction for SLABRCUT
   ERFCRAY_SCREEN=    0.0000 screening factor for erfc+rayleigh like screening for potential kernel
   RAYLEXP=    0.0000  rayleigh exponent in erfc+rayleigh like screening
   ALDAX   =    0.0000 LDA exchange part
   AGGAX   =    0.0000 GGA exchange part
   ALDAC   =    0.0000 LDA correlation
   AGGAC   =    0.0000 GGA correlation
   ENCUTFOCK=  -1.0 apply spherical cutoff to Coloumb kernel
   NBANDSGWLOW=     1    first orbital included in HF term
   NBLOCK_FOCK=    64    blocking factor in FOCK_ACC

 Linear response parameters
   LEPSILON=     F    determine dielectric tensor
   LRPA    =     F    only Hartree local field effects (RPA)
   LNABLA  =     F    use nabla operator in PAW spheres
   LVEL    =     F    velocity operator in full k-point grid
   CSHIFT  =0.1000    complex shift for real part using Kramers Kronig
   OMEGAMAX=  -1.0    maximum frequency
   DEG_THRESHOLD= 0.2000000E-02 threshold for treating states as degnerate
   RTIME   =   -0.100 relaxation time in fs
  (WPLASMAI=    0.000 imaginary part of plasma frequency in eV, 0.658/RTIME)
   DFIELD  = 0.0000000 0.0000000 0.0000000 field for delta impulse in time
 
  Optional k-point grid parameters
   LKPOINTS_OPT  =     F    use optional k-point grid
   KPOINTS_OPT_MODE=     1    mode for optional k-point grid
 
 Orbital magnetization related:
   ORBITALMAG=     F  switch on orbital magnetization
   LCHIMAG   =     F  perturbation theory with respect to B field
   DQ        =  0.001000  dq finite difference perturbation B field
   LLRAUG    =     F  two centre corrections for induced B field



--------------------------------------------------------------------------------------------------------


 Static calculation
 charge density and potential will be updated during run
 non-spin polarized calculation
 Subrot: only subspace diagonalization (rotation)
    band-by band algorithm
 perform sub-space diagonalisation
    before iterative eigenvector-optimisation
 Kerker-like  mixing scheme
 using additional bands         2735
 reciprocal scheme for non local part
 use partial core corrections
 calculate Harris-corrections to forces 
   (improved forces if not selfconsistent)
 use gradient corrections 
 use of overlap-Matrix (Vanderbilt PP)
 Methfessel and Paxton  Order N= 1 SIGMA  =   0.00


--------------------------------------------------------------------------------------------------------


  energy-cutoff  :      400.00
  volume of cell :      148.20
      direct lattice vectors                 reciprocal lattice vectors
     5.291954090  0.000000000  0.000000000     0.188966114  0.000000000  0.000000000
     0.000000000  5.291954090  0.000000000     0.000000000  0.188966114  0.000000000
     0.000000000  0.000000000  5.291954090     0.000000000  0.000000000  0.188966114

  length of vectors
     5.291954090  5.291954090  5.291954090     0.188966114  0.188966114  0.188966114


 
 old parameters found on file WAVECAR:
  energy-cutoff  :      400.00
  volume of cell :      148.20
      direct lattice vectors                 reciprocal lattice vectors
     5.291954090  0.000000000  0.000000000     0.188966114  0.000000000  0.000000000
     0.000000000  5.291954090  0.000000000     0.000000000  0.188966114  0.000000000
     0.000000000  0.000000000  5.291954090     0.000000000  0.000000000  0.188966114

  length of vectors

 
 k-points in units of 2pi/SCALE and weight: Automatically generated mesh            
   0.00000000  0.00000000  0.00000000       1.000
 
 k-points in reciprocal lattice and weights: Automatically generated mesh            
   0.00000000  0.00000000  0.00000000       1.000
 
 position of ions in fractional coordinates (direct lattice) 
   0.00000000  0.00000000  0.00000000
   0.00000000  0.00000000  0.30632597
 
 position of ions in cartesian coordinates  (Angst):
   0.00000000  0.00000000  0.00000000
   0.00000000  0.00000000  1.62106295
 


--------------------------------------------------------------------------------------------------------


 use serial FFT for orbitals x direction half grid
 k-point   1 :   0.0000 0.0000 0.0000  plane waves:    1361

 maximum and minimum number of plane-waves per node :      1361     1361

 maximum number of plane-waves:      1361
 maximum index in each direction: 
   IXMAX=    8   IYMAX=    8   IZMAX=    8
   IXMIN=    0   IYMIN=   -8   IZMIN=   -8


 serial   3D FFT for wavefunctions
 parallel 3D FFT for charge:
    minimum data exchange during FFTs selected (reduces bandwidth)


 FFT grid for exact exchange (Hartree Fock) 
  NGX = 28; NGY = 28; NGZ = 28

 use serial FFT for orbitals x direction half grid
 
 Radii for the augmentation spheres in the non-local exchange
 for species   1 augmentation radius   1.299 (default was   1.039)
       energy cutoff for augmentation   1600.0
 for species   2 augmentation radius   0.735 (default was   0.588)
       energy cutoff for augmentation   1600.0
 Maximum index for augmentation-charges in exchange         1357
  SETUP_FOCK is finished

 total amount of memory used by VASP MPI-rank0    35069. kBytes
=======================================================================

   base      :      30000. kBytes
   nonl-proj :        334. kBytes
   fftplans  :        538. kBytes
   grid      :       2479. kBytes
   one-center:          8. kBytes
   HF        :         67. kBytes
   nonlr-proj:        352. kBytes
   wavefun   :       1291. kBytes
 
     INWAV:  cpu time      0.2064: real time      0.2079
 charge density for first step will be calculated from the start-wavefunctions


--------------------------------------------------------------------------------------------------------


 Maximum index for augmentation-charges          621 (set IRDMAX)


--------------------------------------------------------------------------------------------------------


 initial charge from wavefunction
    FEWALD:  cpu time      0.0002: real time      0.0002


--------------------------------------- Iteration      1(   1)  ---------------------------------------


    POTLOK:  cpu time      0.0066: real time      0.0068
    SETDIJ:  cpu time      0.0029: real time      0.0030
    EDDIAG:  cpu time      8.8415: real time      8.9105
       DOS:  cpu time      0.0007: real time      0.0007
    --------------------------------------------
      LOOP:  cpu time      8.8518: real time      8.9211

 eigenvalue-minimisations  :     0
 total energy-change (2. order) :-0.8672901E+01  ( 0.0000000E+00)
 number of electron       2.0000000 magnetization 
 augmentation part        0.0137426 magnetization 

 Free energy of the ion-electron system (eV)
  ---------------------------------------------------
  alpha Z        PSCENC =         0.60322170
  Ewald energy   TEWEN  =        -5.94680929
  -Hartree energ DENC   =        -9.30188054
  -exchange      EXHF   =        12.37231919
  -V(xc)+E(xc)   XCENC  =         0.00000000
  PAW double counting   =        14.95686857      -14.96786334
  entropy T*S    EENTRO =         0.00000000
  eigenvalues    EBANDS =       -19.61702356
  atomic energy  EATOM  =        13.22826673
  Solvation  Ediel_sol  =         0.00000000
  ---------------------------------------------------
  free energy    TOTEN  =        -8.67290055 eV

  energy without entropy =       -8.67290055  energy(sigma->0) =       -8.67290055
  exchange ACFDT corr.  =         0.00000000  see jH, gK, PRB 81, 115126


--------------------------------------------------------------------------------------------------------




 average (electrostatic) potential at core
  the test charge radii are     1.0393  0.5883
  (the norm of the test charge is              1.0000)
       1   2.0888       2 -20.1737
 
 
 
 E-fermi :  -8.8871     XC(G=0):   0.0000     alpha+bet : -0.9111

 Fermi energy:        -8.8870546779

 k-point     1 :       0.0000    0.0000    0.0000
  band No.  band energies     occupation 
      1      -9.8085      2.00000
      2       1.1237      0.00000
      3       4.2938      0.00000
      4       4.2938      0.00000
      5       4.7445      0.00000
      6       5.2903      0.00000
      7       5.3145      0.00000
      8       7.9871      0.00000
      9       9.4041      0.00000
     10       9.4041      0.00000
     11      10.1608      0.00000
     12      10.3698      0.00000
     13      10.3698      0.00000
     14      10.4393      0.00000
     15      10.8369      0.00000
     16      10.8369      0.00000
     17      10.8780      0.00000
     18      10.9451      0.00000
     19      11.3912      0.00000
     20      14.9312      0.00000
     21      15.5463      0.00000
     22      15.5463      0.00000
     23      15.8095      0.00000
     24      15.8095      0.00000
     25      16.0394      0.00000
     26      16.1570      0.00000
     27      16.5261      0.00000
     28      18.8742      0.00000
     29      20.2980      0.00000
     30      20.2980      0.00000
     31      20.5931      0.00000
     32      20.9078      0.00000
     33      22.0897      0.00000
     34      24.1214      0.00000
     35      24.6900      0.00000
     36      24.6900      0.00000
     37      24.7127      0.00000
     38      26.0774      0.00000
     39      26.1012      0.00000
     40      26.1440      0.00000
     41      26.1975      0.00000
     42      26.1975      0.00000
     43      26.4033      0.00000
     44      26.4033      0.00000
     45      26.6300      0.00000
     46      26.8008      0.00000
     47      26.8008      0.00000
     48      26.8839      0.00000
     49      26.8839      0.00000
     50      26.9111      0.00000
     51      26.9374      0.00000
     52      27.0377      0.00000
     53      27.1576      0.00000
     54      27.1576      0.00000
     55      27.1993      0.00000
     56      27.3006      0.00000
     57      28.7758      0.00000
     58      30.7242      0.00000
     59      30.8559      0.00000
     60      30.8559      0.00000
     61      31.2146      0.00000
     62      31.3871      0.00000
     63      31.3871      0.00000
     64      31.5613      0.00000
     65      31.7950      0.00000
     66      31.9989      0.00000
     67      32.1705      0.00000
     68      32.1705      0.00000
     69      32.2042      0.00000
     70      32.3001      0.00000
     71      32.3001      0.00000
     72      32.3277      0.00000
     73      32.3912      0.00000
     74      32.3912      0.00000
     75      32.4062      0.00000
     76      32.4665      0.00000
     77      32.4665      0.00000
     78      32.4777      0.00000
     79      32.4938      0.00000
     80      32.5160      0.00000
     81      35.0058      0.00000
     82      40.7379      0.00000
     83      41.6191      0.00000
     84      41.6191      0.00000
     85      42.2798      0.00000
     86      42.4211      0.00000
     87      42.4426      0.00000
     88      42.4426      0.00000
     89      42.6733      0.00000
     90      42.6733      0.00000
     91      42.7550      0.00000
     92      42.8554      0.00000
     93      43.9538      0.00000
     94      45.8877      0.00000
     95      46.2222      0.00000
     96      46.2222      0.00000
     97      46.5277      0.00000
     98      47.4037      0.00000
     99      47.4037      0.00000
    100      47.4314      0.00000
    101      47.4515      0.00000
    102      47.5066      0.00000
    103      47.6947      0.00000
    104      47.6947      0.00000
    105      47.8048      0.00000
    106      47.8442      0.00000
    107      48.2870      0.00000
    108      48.3042      0.00000
    109      48.3042      0.00000
    110      48.3692      0.00000
    111      48.4126      0.00000
    112      48.4232      0.00000
    113      48.4232      0.00000
    114      48.4236      0.00000
    115      48.4970      0.00000
    116      48.5173      0.00000
    117      48.5173      0.00000
    118      48.5453      0.00000
    119      48.5469      0.00000
    120      48.5469      0.00000
    121      48.5539      0.00000
    122      48.5555      0.00000
    123      50.2509      0.00000
    124      51.7318      0.00000
    125      52.1628      0.00000
    126      52.1628      0.00000
    127      52.1756      0.00000
    128      52.5846      0.00000
    129      53.1605      0.00000
    130      53.3490      0.00000
    131      53.3518      0.00000
    132      53.3518      0.00000
    133      53.5237      0.00000
    134      53.5237      0.00000
    135      53.5372      0.00000
    136      53.5772      0.00000
    137      53.5933      0.00000
    138      53.5933      0.00000
    139      53.6547      0.00000
    140      53.6547      0.00000
    141      53.7693      0.00000
    142      53.8880      0.00000
    143      53.8880      0.00000
    144      53.9599      0.00000
    145      53.9859      0.00000
    146      53.9861      0.00000
    147      56.1940      0.00000
    148      57.8350      0.00000
    149      58.0494      0.00000
    150      58.2037      0.00000
    151      58.2037      0.00000
    152      58.6287      0.00000
    153      58.6287      0.00000
    154      58.6734      0.00000
    155      58.7501      0.00000
    156      58.8780      0.00000
    157      58.8981      0.00000
    158      58.8981      0.00000
    159      58.9611      0.00000
    160      58.9962      0.00000
    161      58.9962      0.00000
    162      59.0857      0.00000
    163      59.0857      0.00000
    164      59.0931      0.00000
    165      59.1015      0.00000
    166      59.1620      0.00000
    167      59.1660      0.00000
    168      59.1927      0.00000
    169      59.1927      0.00000
    170      59.2344      0.00000
    171      61.7981      0.00000
    172      63.6150      0.00000
    173      63.8618      0.00000
    174      63.8618      0.00000
    175      64.0871      0.00000
    176      64.0871      0.00000
    177      64.1626      0.00000
    178      64.3466      0.00000
    179      65.2585      0.00000
    180      67.7894      0.00000
    181      67.9336      0.00000
    182      67.9336      0.00000
    183      68.8035      0.00000
    184      68.9328      0.00000
    185      68.9395      0.00000
    186      68.9395      0.00000
    187      69.1416      0.00000
    188      69.1810      0.00000
    189      69.3194      0.00000
    190      69.3194      0.00000
    191      69.4489      0.00000
    192      69.7177      0.00000
    193      69.7878      0.00000
    194      69.8169      0.00000
    195      69.8169      0.00000
    196      69.8325      0.00000
    197      69.8460      0.00000
    198      69.8460      0.00000
    199      69.9030      0.00000
    200      69.9030      0.00000
    201      69.9597      0.00000
    202      69.9944      0.00000
    203      71.7171      0.00000
    204      73.3358      0.00000
    205      73.3921      0.00000
    206      73.4080      0.00000
    207      73.4080      0.00000
    208      74.1419      0.00000
    209      74.1419      0.00000
    210      74.2089      0.00000
    211      74.5120      0.00000
    212      74.5120      0.00000
    213      74.5747      0.00000
    214      74.5837      0.00000
    215      74.7313      0.00000
    216      74.8548      0.00000
    217      74.8548      0.00000
    218      74.8968      0.00000
    219      74.9058      0.00000
    220      74.9298      0.00000
    221      74.9298      0.00000
    222      74.9417      0.00000
    223      74.9417      0.00000
    224      74.9498      0.00000
    225      74.9751      0.00000
    226      74.9850      0.00000
    227      75.0391      0.00000
    228      75.2225      0.00000
    229      75.2225      0.00000
    230      75.2352      0.00000
    231      75.3156      0.00000
    232      75.3276      0.00000
    233      75.3276      0.00000
    234      75.3565      0.00000
    235      75.3766      0.00000
    236      75.3766      0.00000
    237      75.3920      0.00000
    238      75.4004      0.00000
    239      75.4309      0.00000
    240      75.4309      0.00000
    241      75.4557      0.00000
    242      75.4563      0.00000
    243      75.5007      0.00000
    244      75.5635      0.00000
    245      75.6022      0.00000
    246      75.6022      0.00000
    247      75.6279      0.00000
    248      75.6279      0.00000
    249      75.6436      0.00000
    250      75.6649      0.00000
    251      80.3903      0.00000
    252      84.4638      0.00000
    253      84.7921      0.00000
    254      84.7921      0.00000
    255      85.1107      0.00000
    256      85.1459      0.00000
    257      86.4894      0.00000
    258      88.4115      0.00000
    259      88.6946      0.00000
    260      88.6946      0.00000
    261      89.2418      0.00000
    262      89.7725      0.00000
    263      90.0736      0.00000
    264      90.2023      0.00000
    265      90.2023      0.00000
    266      90.2534      0.00000
    267      90.5198      0.00000
    268      90.6920      0.00000
    269      90.6920      0.00000
    270      90.8080      0.00000
    271      90.8987      0.00000
    272      90.8987      0.00000
    273      90.9922      0.00000
    274      91.0827      0.00000
    275      91.1167      0.00000
    276      91.1453      0.00000
    277      91.1453      0.00000
    278      91.1785      0.00000
    279      91.2114      0.00000
    280      91.2114      0.00000
    281      91.2459      0.00000
    282      91.2764      0.00000
    283      91.2764      0.00000
    284      91.3446      0.00000
    285      91.3446      0.00000
    286      91.3514      0.00000
    287      91.3968      0.00000
    288      91.4083      0.00000
    289      91.4251      0.00000
    290      91.4251      0.00000
    291      91.4518      0.00000
    292      91.4563      0.00000
    293      91.4595      0.00000
    294      91.4659      0.00000
    295      91.4659      0.00000
    296      91.4751      0.00000
    297      91.4751      0.00000
    298      91.4766      0.00000
    299      91.5819      0.00000
    300      91.5825      0.00000
    301      91.5890      0.00000
    302      91.5913      0.00000
    303      91.5923      0.00000
    304      91.5923      0.00000
    305      93.9153      0.00000
    306      95.1602      0.00000
    307      95.4166      0.00000
    308      95.4166      0.00000
    309      95.8492      0.00000
    310      96.0695      0.00000
    311      96.1013      0.00000
    312      96.1202      0.00000
    313      96.1202      0.00000
    314      96.2101      0.00000
    315      96.3287      0.00000
    316      96.3287      0.00000
    317      96.3950      0.00000
    318      96.4321      0.00000
    319      96.4507      0.00000
    320      96.5035      0.00000
    321      96.5035      0.00000
    322      96.5585      0.00000
    323      96.5752      0.00000
    324      96.5824      0.00000
    325      96.5824      0.00000
    326      96.6256      0.00000
    327      96.6256      0.00000
    328      96.6498      0.00000
    329      96.6630      0.00000
    330      96.6796      0.00000
    331      96.6796      0.00000
    332      96.6938      0.00000
    333      96.7145      0.00000
    334      96.7145      0.00000
    335      96.7714      0.00000
    336      96.7763      0.00000
    337      96.7784      0.00000
    338      96.8042      0.00000
    339      96.8042      0.00000
    340      96.8141      0.00000
    341      99.6565      0.00000
    342     101.0498      0.00000
    343     101.2525      0.00000
    344     101.2525      0.00000
    345     101.4599      0.00000
    346     101.5761      0.00000
    347     101.5761      0.00000
    348     101.7582      0.00000
    349     101.8203      0.00000
    350     101.8336      0.00000
    351     101.8336      0.00000
    352     101.8996      0.00000
    353     101.9312      0.00000
    354     101.9772      0.00000
    355     101.9872      0.00000
    356     101.9872      0.00000
    357     102.0293      0.00000
    358     102.0707      0.00000
    359     102.0707      0.00000
    360     102.0759      0.00000
    361     102.0759      0.00000
    362     102.0924      0.00000
    363     102.0946      0.00000
    364     102.1167      0.00000
    365     103.9937      0.00000
    366     105.9676      0.00000
    367     106.3387      0.00000
    368     106.3387      0.00000
    369     106.5619      0.00000
    370     106.8347      0.00000
    371     106.9296      0.00000
    372     106.9711      0.00000
    373     106.9922      0.00000
    374     106.9922      0.00000
    375     107.1257      0.00000
    376     107.1257      0.00000
    377     107.1385      0.00000
    378     107.1933      0.00000
    379     107.2247      0.00000
    380     107.2247      0.00000
    381     107.2590      0.00000
    382     107.2606      0.00000
    383     107.2606      0.00000
    384     107.3107      0.00000
    385     107.3639      0.00000
    386     107.3639      0.00000
    387     107.3715      0.00000
    388     107.4364      0.00000
    389     109.0866      0.00000
    390     110.9968      0.00000
    391     111.2339      0.00000
    392     111.2339      0.00000
    393     111.8217      0.00000
    394     112.1141      0.00000
    395     112.1141      0.00000
    396     112.1291      0.00000
    397     112.1900      0.00000
    398     112.2015      0.00000
    399     112.4382      0.00000
    400     112.4382      0.00000
    401     112.4796      0.00000
    402     112.4796      0.00000
    403     112.5361      0.00000
    404     112.5609      0.00000
    405     112.5620      0.00000
    406     112.5671      0.00000
    407     112.5671      0.00000
    408     112.5895      0.00000
    409     112.5993      0.00000
    410     112.6005      0.00000
    411     112.6125      0.00000
    412     112.6125      0.00000
    413     112.6468      0.00000
    414     112.7148      0.00000
    415     112.7148      0.00000
    416     112.8600      0.00000
    417     112.8809      0.00000
    418     112.8907      0.00000
    419     112.9374      0.00000
    420     112.9462      0.00000
    421     112.9491      0.00000
    422     112.9491      0.00000
    423     112.9780      0.00000
    424     112.9780      0.00000
    425     112.9830      0.00000
    426     112.9881      0.00000
    427     112.9881      0.00000
    428     113.0284      0.00000
    429     113.0298      0.00000
    430     113.0308      0.00000
    431     113.0380      0.00000
    432     113.0380      0.00000
    433     113.0628      0.00000
    434     113.0683      0.00000
    435     113.0683      0.00000
    436     113.0946      0.00000
    437     114.7167      0.00000
    438     116.7788      0.00000
    439     117.0244      0.00000
    440     117.0244      0.00000
    441     117.2829      0.00000
    442     117.2829      0.00000
    443     117.3623      0.00000
    444     117.7826      0.00000
    445     118.0109      0.00000
    446     118.2027      0.00000
    447     118.2027      0.00000
    448     118.2260      0.00000
    449     118.2538      0.00000
    450     118.2748      0.00000
    451     118.2748      0.00000
    452     118.2959      0.00000
    453     118.3042      0.00000
    454     118.3178      0.00000
    455     118.3178      0.00000
    456     118.3217      0.00000
    457     118.3238      0.00000
    458     118.3253      0.00000
    459     118.3253      0.00000
    460     118.3387      0.00000
    461     118.9378      0.00000
    462     127.5662      0.00000
    463     127.7604      0.00000
    464     127.7604      0.00000
    465     128.1153      0.00000
    466     128.4777      0.00000
    467     128.5800      0.00000
    468     128.6080      0.00000
    469     128.6080      0.00000
    470     128.6790      0.00000
    471     128.6790      0.00000
    472     128.7315      0.00000
    473     128.7666      0.00000
    474     128.7937      0.00000
    475     128.7937      0.00000
    476     128.8262      0.00000
    477     128.8534      0.00000
    478     128.8637      0.00000
    479     128.8637      0.00000
    480     128.8873      0.00000
    481     128.8930      0.00000
    482     128.9133      0.00000
    483     128.9133      0.00000
    484     128.9730      0.00000
    485     128.9941      0.00000
    486     132.0132      0.00000
    487     132.0132      0.00000
    488     132.3773      0.00000
    489     132.8256      0.00000
    490     133.4452      0.00000
    491     133.4466      0.00000
    492     133.6448      0.00000
    493     133.6448      0.00000
    494     133.6670      0.00000
    495     133.7995      0.00000
    496     133.8649      0.00000
    497     133.9309      0.00000
    498     133.9410      0.00000
    499     133.9410      0.00000
    500     133.9668      0.00000
    501     134.0152      0.00000
    502     134.0152      0.00000
    503     134.0481      0.00000
    504     134.2716      0.00000
    505     134.2819      0.00000
    506     134.2999      0.00000
    507     134.3020      0.00000
    508     134.3020      0.00000
    509     134.3060      0.00000
    510     134.3290      0.00000
    511     134.3290      0.00000
    512     134.3623      0.00000
    513     134.3623      0.00000
    514     134.3803      0.00000
    515     134.3947      0.00000
    516     137.3760      0.00000
    517     137.6666      0.00000
    518     137.6666      0.00000
    519     137.8130      0.00000
    520     138.6064      0.00000
    521     138.6216      0.00000
    522     138.6541      0.00000
    523     138.7561      0.00000
    524     138.7561      0.00000
    525     138.9000      0.00000
    526     139.0962      0.00000
    527     139.0962      0.00000
    528     139.1404      0.00000
    529     139.1973      0.00000
    530     139.2231      0.00000
    531     139.2645      0.00000
    532     139.2645      0.00000
    533     139.2714      0.00000
    534     139.4032      0.00000
    535     139.4304      0.00000
    536     139.4304      0.00000
    537     139.4332      0.00000
    538     139.4361      0.00000
    539     139.4363      0.00000
    540     139.4462      0.00000
    541     139.4549      0.00000
    542     139.4549      0.00000
    543     139.4611      0.00000
    544     139.4611      0.00000
    545     139.4953      0.00000
    546     139.5023      0.00000
    547     139.5171      0.00000
    548     139.5171      0.00000
    549     139.5496      0.00000
    550     139.5509      0.00000
    551     139.5653      0.00000
    552     139.5653      0.00000
    553     139.5685      0.00000
    554     139.5802      0.00000
    555     139.5802      0.00000
    556     139.5941      0.00000
    557     139.6376      0.00000
    558     139.6376      0.00000
    559     139.7145      0.00000
    560     139.7160      0.00000
    561     139.7217      0.00000
    562     139.7217      0.00000
    563     139.7341      0.00000
    564     139.7341      0.00000
    565     139.7365      0.00000
    566     139.7953      0.00000
    567     139.8131      0.00000
    568     139.8131      0.00000
    569     139.8167      0.00000
    570     139.8533      0.00000
    571     139.8791      0.00000
    572     139.8812      0.00000
    573     139.8812      0.00000
    574     139.8827      0.00000
    575     139.9085      0.00000
    576     139.9126      0.00000
    577     139.9197      0.00000
    578     139.9197      0.00000
    579     139.9320      0.00000
    580     139.9320      0.00000
    581     139.9390      0.00000
    582     139.9414      0.00000
    583     139.9431      0.00000
    584     139.9431      0.00000
    585     139.9434      0.00000
    586     139.9487      0.00000
    587     139.9571      0.00000
    588     144.1005      0.00000
    589     144.3263      0.00000
    590     144.3536      0.00000
    591     144.3536      0.00000
    592     144.6147      0.00000
    593     144.6990      0.00000
    594     144.6990      0.00000
    595     144.7335      0.00000
    596     144.7560      0.00000
    597     144.8104      0.00000
    598     144.8363      0.00000
    599     144.8369      0.00000
    600     144.8369      0.00000
    601     144.8793      0.00000
    602     144.8990      0.00000
    603     144.8990      0.00000
    604     144.9714      0.00000
    605     144.9792      0.00000
    606     144.9825      0.00000
    607     144.9825      0.00000
    608     145.0180      0.00000
    609     145.0445      0.00000
    610     145.0445      0.00000
    611     145.0647      0.00000
    612     145.0855      0.00000
    613     145.0855      0.00000
    614     145.1224      0.00000
    615     145.1256      0.00000
    616     145.1622      0.00000
    617     145.1666      0.00000
    618     145.1666      0.00000
    619     145.1732      0.00000
    620     153.3328      0.00000
    621     153.4174      0.00000
    622     153.4174      0.00000
    623     153.7389      0.00000
    624     154.4905      0.00000
    625     154.8589      0.00000
    626     154.8589      0.00000
    627     154.9047      0.00000
    628     154.9719      0.00000
    629     155.0106      0.00000
    630     155.0106      0.00000
    631     155.2543      0.00000
    632     155.2643      0.00000
    633     155.3085      0.00000
    634     155.3085      0.00000
    635     155.3212      0.00000
    636     155.4190      0.00000
    637     155.4460      0.00000
    638     155.4518      0.00000
    639     155.4573      0.00000
    640     155.4640      0.00000
    641     155.4640      0.00000
    642     155.4747      0.00000
    643     155.4981      0.00000
    644     155.4981      0.00000
    645     155.5025      0.00000
    646     155.5025      0.00000
    647     155.5214      0.00000
    648     155.5214      0.00000
    649     155.5245      0.00000
    650     155.5390      0.00000
    651     155.5458      0.00000
    652     155.5690      0.00000
    653     155.5783      0.00000
    654     155.6114      0.00000
    655     155.6114      0.00000
    656     155.6273      0.00000
    657     155.6524      0.00000
    658     155.6955      0.00000
    659     155.6986      0.00000
    660     155.6986      0.00000
    661     155.7190      0.00000
    662     155.7274      0.00000
    663     155.7349      0.00000
    664     155.7349      0.00000
    665     155.7655      0.00000
    666     155.7917      0.00000
    667     155.7917      0.00000
    668     155.8503      0.00000
    669     155.8667      0.00000
    670     155.8728      0.00000
    671     155.8728      0.00000
    672     155.8759      0.00000
    673     155.8916      0.00000
    674     155.8916      0.00000
    675     155.8961      0.00000
    676     155.9429      0.00000
    677     155.9450      0.00000
    678     155.9450      0.00000
    679     155.9487      0.00000
    680     155.9525      0.00000
    681     155.9525      0.00000
    682     155.9538      0.00000
    683     155.9613      0.00000
    684     156.1471      0.00000
    685     156.1553      0.00000
    686     156.1558      0.00000
    687     156.1558      0.00000
    688     156.1639      0.00000
    689     156.1639      0.00000
    690     156.1676      0.00000
    691     156.1742      0.00000
    692     159.8462      0.00000
    693     159.9760      0.00000
    694     160.0451      0.00000
    695     160.0451      0.00000
    696     160.5635      0.00000
    697     160.6162      0.00000
    698     160.7095      0.00000
    699     160.7095      0.00000
    700     160.7888      0.00000
    701     160.9223      0.00000
    702     160.9223      0.00000
    703     160.9262      0.00000
    704     160.9304      0.00000
    705     160.9321      0.00000
    706     160.9514      0.00000
    707     160.9514      0.00000
    708     160.9555      0.00000
    709     160.9555      0.00000
    710     160.9727      0.00000
    711     160.9780      0.00000
    712     160.9803      0.00000
    713     160.9885      0.00000
    714     161.0015      0.00000
    715     161.0015      0.00000
    716     161.0134      0.00000
    717     161.0701      0.00000
    718     161.0701      0.00000
    719     161.1698      0.00000
    720     161.2495      0.00000
    721     161.2553      0.00000
    722     161.2842      0.00000
    723     161.2923      0.00000
    724     161.2923      0.00000
    725     161.2985      0.00000
    726     161.3239      0.00000
    727     161.3239      0.00000
    728     161.3261      0.00000
    729     161.3261      0.00000
    730     161.3304      0.00000
    731     161.3638      0.00000
    732     161.3638      0.00000
    733     161.3729      0.00000
    734     161.3733      0.00000
    735     161.3848      0.00000
    736     161.3989      0.00000
    737     161.4114      0.00000
    738     161.4114      0.00000
    739     161.4162      0.00000
    740     171.0387      0.00000
    741     171.1331      0.00000
    742     171.1331      0.00000
    743     171.3788      0.00000
    744     171.5445      0.00000
    745     171.6357      0.00000
    746     171.6357      0.00000
    747     171.6466      0.00000
    748     171.7625      0.00000
    749     171.7727      0.00000
    750     171.7727      0.00000
    751     171.8309      0.00000
    752     175.7914      0.00000
    753     175.8953      0.00000
    754     175.8953      0.00000
    755     175.9589      0.00000
    756     176.7558      0.00000
    757     176.7990      0.00000
    758     176.7990      0.00000
    759     176.9099      0.00000
    760     176.9629      0.00000
    761     177.0017      0.00000
    762     177.0017      0.00000
    763     177.0262      0.00000
    764     177.0429      0.00000
    765     177.0765      0.00000
    766     177.0765      0.00000
    767     177.1241      0.00000
    768     177.1520      0.00000
    769     177.1545      0.00000
    770     177.1545      0.00000
    771     177.1623      0.00000
    772     177.1776      0.00000
    773     177.1874      0.00000
    774     177.1902      0.00000
    775     177.1902      0.00000
    776     177.1912      0.00000
    777     177.1977      0.00000
    778     177.2050      0.00000
    779     177.2193      0.00000
    780     177.2193      0.00000
    781     177.2279      0.00000
    782     177.2360      0.00000
    783     177.2395      0.00000
    784     177.2395      0.00000
    785     177.2718      0.00000
    786     177.2735      0.00000
    787     177.2769      0.00000
    788     177.2769      0.00000
    789     177.2918      0.00000
    790     177.3010      0.00000
    791     177.3010      0.00000
    792     177.3015      0.00000
    793     177.3056      0.00000
    794     177.3056      0.00000
    795     177.3145      0.00000
    796     177.3435      0.00000
    797     177.3625      0.00000
    798     177.3625      0.00000
    799     177.3755      0.00000
    800     181.0145      0.00000
    801     181.0329      0.00000
    802     181.0329      0.00000
    803     181.4291      0.00000
    804     181.9894      0.00000
    805     182.0298      0.00000
    806     182.0298      0.00000
    807     182.0641      0.00000
    808     182.0755      0.00000
    809     182.2842      0.00000
    810     182.2842      0.00000
    811     182.2923      0.00000
    812     182.3155      0.00000
    813     182.3374      0.00000
    814     182.3532      0.00000
    815     182.3532      0.00000
    816     182.3773      0.00000
    817     182.4072      0.00000
    818     182.4218      0.00000
    819     182.4218      0.00000
    820     182.4386      0.00000
    821     182.4458      0.00000
    822     182.4476      0.00000
    823     182.4482      0.00000
    824     182.4482      0.00000
    825     182.5341      0.00000
    826     182.5569      0.00000
    827     182.5569      0.00000
    828     182.5919      0.00000
    829     182.6003      0.00000
    830     182.6003      0.00000
    831     182.6707      0.00000
    832     182.7266      0.00000
    833     182.7379      0.00000
    834     182.7389      0.00000
    835     182.7389      0.00000
    836     182.7470      0.00000
    837     182.7530      0.00000
    838     182.7759      0.00000
    839     182.7759      0.00000
    840     182.7793      0.00000
    841     182.7839      0.00000
    842     182.7854      0.00000
    843     182.7854      0.00000
    844     182.7856      0.00000
    845     182.7891      0.00000
    846     182.7891      0.00000
    847     182.7993      0.00000
    848     186.9142      0.00000
    849     187.1840      0.00000
    850     187.2164      0.00000
    851     187.2164      0.00000
    852     187.5494      0.00000
    853     187.5494      0.00000
    854     187.5734      0.00000
    855     187.7122      0.00000
    856     187.7450      0.00000
    857     187.7881      0.00000
    858     187.7881      0.00000
    859     187.8108      0.00000
    860     187.8456      0.00000
    861     187.8457      0.00000
    862     187.8664      0.00000
    863     187.8664      0.00000
    864     187.9133      0.00000
    865     187.9133      0.00000
    866     187.9308      0.00000
    867     187.9380      0.00000
    868     187.9862      0.00000
    869     187.9873      0.00000
    870     187.9873      0.00000
    871     187.9873      0.00000
    872     187.9982      0.00000
    873     188.0016      0.00000
    874     188.0089      0.00000
    875     188.0089      0.00000
    876     188.0098      0.00000
    877     188.0213      0.00000
    878     188.0213      0.00000
    879     188.0247      0.00000
    880     188.0257      0.00000
    881     188.0303      0.00000
    882     188.0303      0.00000
    883     188.0459      0.00000
    884     188.0501      0.00000
    885     188.0521      0.00000
    886     188.0548      0.00000
    887     188.0593      0.00000
    888     188.0593      0.00000
    889     188.0780      0.00000
    890     188.0780      0.00000
    891     188.0980      0.00000
    892     188.1189      0.00000
    893     188.1308      0.00000
    894     188.1402      0.00000
    895     188.1402      0.00000
    896     192.5152      0.00000
    897     192.5522      0.00000
    898     192.5522      0.00000
    899     192.7292      0.00000
    900     192.9525      0.00000
    901     192.9833      0.00000
    902     193.0358      0.00000
    903     193.0358      0.00000
    904     193.0546      0.00000
    905     193.1230      0.00000
    906     193.1760      0.00000
    907     193.2426      0.00000
    908     193.2426      0.00000
    909     193.2533      0.00000
    910     193.2745      0.00000
    911     193.2745      0.00000
    912     193.3048      0.00000
    913     193.3048      0.00000
    914     193.3110      0.00000
    915     193.3291      0.00000
    916     193.3311      0.00000
    917     193.3404      0.00000
    918     193.3476      0.00000
    919     193.3597      0.00000
    920     193.3616      0.00000
    921     193.3616      0.00000
    922     193.3693      0.00000
    923     193.3851      0.00000
    924     193.3851      0.00000
    925     193.4793      0.00000
    926     197.4004      0.00000
    927     197.7962      0.00000
    928     197.7962      0.00000
    929     197.8101      0.00000
    930     198.1138      0.00000
    931     198.1386      0.00000
    932     198.4755      0.00000
    933     198.5619      0.00000
    934     198.5635      0.00000
    935     198.5635      0.00000
    936     198.5943      0.00000
    937     198.5943      0.00000
    938     198.6001      0.00000
    939     198.6437      0.00000
    940     198.7283      0.00000
    941     198.7283      0.00000
    942     198.7368      0.00000
    943     198.7368      0.00000
    944     198.9072      0.00000
    945     198.9309      0.00000
    946     198.9309      0.00000
    947     198.9737      0.00000
    948     199.0184      0.00000
    949     199.0184      0.00000
    950     202.4119      0.00000
    951     202.8027      0.00000
    952     202.8027      0.00000
    953     203.0817      0.00000
    954     203.4525      0.00000
    955     203.5068      0.00000
    956     203.5068      0.00000
    957     203.6787      0.00000
    958     203.7733      0.00000
    959     203.7746      0.00000
    960     203.7746      0.00000
    961     203.7846      0.00000
    962     203.8022      0.00000
    963     203.8143      0.00000
    964     203.8156      0.00000
    965     203.8335      0.00000
    966     203.8335      0.00000
    967     203.8575      0.00000
    968     203.8850      0.00000
    969     203.8850      0.00000
    970     203.8873      0.00000
    971     203.9045      0.00000
    972     203.9045      0.00000
    973     203.9096      0.00000
    974     203.9357      0.00000
    975     203.9380      0.00000
    976     203.9380      0.00000
    977     203.9987      0.00000
    978     204.0282      0.00000
    979     204.0531      0.00000
    980     204.0558      0.00000
    981     204.0639      0.00000
    982     204.0639      0.00000
    983     204.0891      0.00000
    984     204.1140      0.00000
    985     204.1140      0.00000
    986     204.1165      0.00000
    987     204.1261      0.00000
    988     204.1261      0.00000
    989     204.1559      0.00000
    990     204.1608      0.00000
    991     204.1608      0.00000
    992     204.1768      0.00000
    993     204.1889      0.00000
    994     204.1889      0.00000
    995     204.2091      0.00000
    996     204.2112      0.00000
    997     204.2140      0.00000
    998     204.2198      0.00000
    999     204.2410      0.00000
   1000     204.2410      0.00000
   1001     204.2516      0.00000
   1002     204.2564      0.00000
   1003     204.2599      0.00000
   1004     204.2601      0.00000
   1005     204.2601      0.00000
   1006     204.2725      0.00000
   1007     204.2730      0.00000
   1008     204.2751      0.00000
   1009     204.2830      0.00000
   1010     204.2830      0.00000
   1011     204.2944      0.00000
   1012     204.2944      0.00000
   1013     204.2976      0.00000
   1014     204.3184      0.00000
   1015     204.3205      0.00000
   1016     204.3205      0.00000
   1017     204.3241      0.00000
   1018     204.3264      0.00000
   1019     204.3318      0.00000
   1020     204.3318      0.00000
   1021     204.3482      0.00000
   1022     213.8085      0.00000
   1023     214.1442      0.00000
   1024     214.1442      0.00000
   1025     214.3354      0.00000
   1026     214.4733      0.00000
   1027     214.4733      0.00000
   1028     214.5357      0.00000
   1029     214.5640      0.00000
   1030     214.6213      0.00000
   1031     214.6898      0.00000
   1032     214.6943      0.00000
   1033     214.6943      0.00000
   1034     214.7399      0.00000
   1035     214.7472      0.00000
   1036     214.7472      0.00000
   1037     214.7858      0.00000
   1038     214.7900      0.00000
   1039     214.7972      0.00000
   1040     214.7982      0.00000
   1041     214.7982      0.00000
   1042     214.8070      0.00000
   1043     214.8070      0.00000
   1044     214.8072      0.00000
   1045     214.8204      0.00000
   1046     218.2889      0.00000
   1047     218.4564      0.00000
   1048     218.4564      0.00000
   1049     218.6465      0.00000
   1050     219.2998      0.00000
   1051     219.3723      0.00000
   1052     219.3723      0.00000
   1053     219.5971      0.00000
   1054     219.6718      0.00000
   1055     219.7112      0.00000
   1056     219.7339      0.00000
   1057     219.7339      0.00000
   1058     219.7537      0.00000
   1059     219.7537      0.00000
   1060     219.7729      0.00000
   1061     219.8028      0.00000
   1062     219.8293      0.00000
   1063     219.8594      0.00000
   1064     219.8594      0.00000
   1065     219.8919      0.00000
   1066     219.8919      0.00000
   1067     219.8964      0.00000
   1068     219.9108      0.00000
   1069     219.9569      0.00000
   1070     219.9701      0.00000
   1071     219.9971      0.00000
   1072     219.9971      0.00000
   1073     220.0040      0.00000
   1074     220.0080      0.00000
   1075     220.0097      0.00000
   1076     220.0252      0.00000
   1077     220.0305      0.00000
   1078     220.0305      0.00000
   1079     220.0451      0.00000
   1080     220.0451      0.00000
   1081     220.0510      0.00000
   1082     220.0571      0.00000
   1083     220.0571      0.00000
   1084     220.0767      0.00000
   1085     220.0784      0.00000
   1086     220.1166      0.00000
   1087     220.1193      0.00000
   1088     220.1193      0.00000
   1089     220.1287      0.00000
   1090     220.1538      0.00000
   1091     220.2010      0.00000
   1092     220.2010      0.00000
   1093     220.2162      0.00000
   1094     220.2504      0.00000
   1095     220.2504      0.00000
   1096     220.2556      0.00000
   1097     220.2624      0.00000
   1098     220.2671      0.00000
   1099     220.2687      0.00000
   1100     220.2934      0.00000
   1101     220.2934      0.00000
   1102     220.3126      0.00000
   1103     220.3238      0.00000
   1104     220.3437      0.00000
   1105     220.3437      0.00000
   1106     220.3451      0.00000
   1107     220.3481      0.00000
   1108     220.3571      0.00000
   1109     220.3682      0.00000
   1110     220.3682      0.00000
   1111     220.3745      0.00000
   1112     220.3745      0.00000
   1113     220.3802      0.00000
   1114     220.3867      0.00000
   1115     220.3880      0.00000
   1116     220.3880      0.00000
   1117     220.3936      0.00000
   1118     220.3962      0.00000
   1119     220.3981      0.00000
   1120     220.4071      0.00000
   1121     220.4071      0.00000
   1122     220.4169      0.00000
   1123     220.4204      0.00000
   1124     220.4204      0.00000
   1125     220.4212      0.00000
   1126     220.4212      0.00000
   1127     220.4217      0.00000
   1128     220.4289      0.00000
   1129     220.4419      0.00000
   1130     220.4419      0.00000
   1131     220.4474      0.00000
   1132     220.4550      0.00000
   1133     220.4550      0.00000
   1134     220.4663      0.00000
   1135     220.4766      0.00000
   1136     220.4766      0.00000
   1137     220.4804      0.00000
   1138     220.5015      0.00000
   1139     220.5157      0.00000
   1140     220.5157      0.00000
   1141     220.5181      0.00000
   1142     224.6456      0.00000
   1143     224.8656      0.00000
   1144     224.8656      0.00000
   1145     224.9724      0.00000
   1146     225.1684      0.00000
   1147     225.1684      0.00000
   1148     225.2684      0.00000
   1149     225.3193      0.00000
   1150     225.3518      0.00000
   1151     225.3518      0.00000
   1152     225.3849      0.00000
   1153     225.3880      0.00000
   1154     225.4072      0.00000
   1155     225.4072      0.00000
   1156     225.4119      0.00000
   1157     225.4119      0.00000
   1158     225.4138      0.00000
   1159     225.4268      0.00000
   1160     225.4375      0.00000
   1161     225.4699      0.00000
   1162     225.4879      0.00000
   1163     225.5069      0.00000
   1164     225.5217      0.00000
   1165     225.5364      0.00000
   1166     225.5364      0.00000
   1167     225.5522      0.00000
   1168     225.5869      0.00000
   1169     225.5869      0.00000
   1170     225.6299      0.00000
   1171     225.6479      0.00000
   1172     225.6498      0.00000
   1173     225.6498      0.00000
   1174     225.7484      0.00000
   1175     225.7545      0.00000
   1176     225.7545      0.00000
   1177     225.7592      0.00000
   1178     225.8442      0.00000
   1179     225.8497      0.00000
   1180     225.8497      0.00000
   1181     225.8508      0.00000
   1182     225.8533      0.00000
   1183     225.8536      0.00000
   1184     225.8553      0.00000
   1185     225.8553      0.00000
   1186     225.8567      0.00000
   1187     225.8567      0.00000
   1188     225.8630      0.00000
   1189     225.8653      0.00000
   1190     230.4433      0.00000
   1191     230.5649      0.00000
   1192     230.5649      0.00000
   1193     230.7063      0.00000
   1194     230.7729      0.00000
   1195     230.7955      0.00000
   1196     230.7955      0.00000
   1197     230.8218      0.00000
   1198     230.8456      0.00000
   1199     230.8783      0.00000
   1200     230.8783      0.00000
   1201     230.9261      0.00000
   1202     230.9384      0.00000
   1203     230.9384      0.00000
   1204     230.9428      0.00000
   1205     230.9501      0.00000
   1206     230.9533      0.00000
   1207     230.9578      0.00000
   1208     230.9628      0.00000
   1209     230.9628      0.00000
   1210     231.0213      0.00000
   1211     231.0213      0.00000
   1212     231.0317      0.00000
   1213     231.0894      0.00000
   1214     235.6455      0.00000
   1215     235.8859      0.00000
   1216     235.8859      0.00000
   1217     236.1009      0.00000
   1218     236.1959      0.00000
   1219     236.2243      0.00000
   1220     236.2243      0.00000
   1221     236.2847      0.00000
   1222     236.2848      0.00000
   1223     236.2848      0.00000
   1224     236.2896      0.00000
   1225     236.2919      0.00000
   1226     236.2976      0.00000
   1227     236.3075      0.00000
   1228     236.3206      0.00000
   1229     236.3261      0.00000
   1230     236.3276      0.00000
   1231     236.3276      0.00000
   1232     236.3332      0.00000
   1233     236.3332      0.00000
   1234     236.3339      0.00000
   1235     236.3596      0.00000
   1236     236.3596      0.00000
   1237     236.3686      0.00000
   1238     240.4512      0.00000
   1239     240.6990      0.00000
   1240     240.6990      0.00000
   1241     240.7666      0.00000
   1242     241.0128      0.00000
   1243     241.0128      0.00000
   1244     241.1079      0.00000
   1245     241.3396      0.00000
   1246     241.3881      0.00000
   1247     241.3881      0.00000
   1248     241.4136      0.00000
   1249     241.4161      0.00000
   1250     241.4206      0.00000
   1251     241.4234      0.00000
   1252     241.4234      0.00000
   1253     241.4292      0.00000
   1254     241.4417      0.00000
   1255     241.4476      0.00000
   1256     241.4479      0.00000
   1257     241.4479      0.00000
   1258     241.4951      0.00000
   1259     241.4971      0.00000
   1260     241.5074      0.00000
   1261     241.5074      0.00000
   1262     241.5346      0.00000
   1263     241.5346      0.00000
   1264     241.5621      0.00000
   1265     241.5714      0.00000
   1266     241.5715      0.00000
   1267     241.5759      0.00000
   1268     241.5759      0.00000
   1269     241.6211      0.00000
   1270     241.6265      0.00000
   1271     241.6304      0.00000
   1272     241.6353      0.00000
   1273     241.6423      0.00000
   1274     241.6423      0.00000
   1275     241.6464      0.00000
   1276     241.6639      0.00000
   1277     241.6639      0.00000
   1278     241.6666      0.00000
   1279     241.6751      0.00000
   1280     241.6751      0.00000
   1281     241.6887      0.00000
   1282     241.6992      0.00000
   1283     241.7082      0.00000
   1284     241.7082      0.00000
   1285     241.7113      0.00000
   1286     241.8162      0.00000
   1287     241.8453      0.00000
   1288     241.8488      0.00000
   1289     241.8580      0.00000
   1290     241.8580      0.00000
   1291     241.8610      0.00000
   1292     241.8626      0.00000
   1293     241.8626      0.00000
   1294     241.8751      0.00000
   1295     241.8789      0.00000
   1296     241.8790      0.00000
   1297     241.8790      0.00000
   1298     241.8844      0.00000
   1299     241.8913      0.00000
   1300     241.8913      0.00000
   1301     241.8926      0.00000
   1302     241.9137      0.00000
   1303     241.9159      0.00000
   1304     241.9169      0.00000
   1305     241.9169      0.00000
   1306     241.9204      0.00000
   1307     241.9204      0.00000
   1308     241.9205      0.00000
   1309     241.9328      0.00000
   1310     246.2980      0.00000
   1311     246.5825      0.00000
   1312     246.5846      0.00000
   1313     246.5846      0.00000
   1314     246.8497      0.00000
   1315     246.8497      0.00000
   1316     246.9308      0.00000
   1317     246.9686      0.00000
   1318     246.9828      0.00000
   1319     246.9891      0.00000
   1320     246.9995      0.00000
   1321     246.9995      0.00000
   1322     247.0179      0.00000
   1323     247.0179      0.00000
   1324     247.0229      0.00000
   1325     247.0229      0.00000
   1326     247.0246      0.00000
   1327     247.0356      0.00000
   1328     247.0540      0.00000
   1329     247.0632      0.00000
   1330     247.0793      0.00000
   1331     247.0830      0.00000
   1332     247.0830      0.00000
   1333     247.0880      0.00000
   1334     247.0880      0.00000
   1335     247.0901      0.00000
   1336     247.1129      0.00000
   1337     247.1129      0.00000
   1338     247.1135      0.00000
   1339     247.1135      0.00000
   1340     247.1179      0.00000
   1341     247.1320      0.00000
   1342     247.1323      0.00000
   1343     247.1323      0.00000
   1344     247.1343      0.00000
   1345     247.1405      0.00000
   1346     247.1437      0.00000
   1347     247.1440      0.00000
   1348     247.1440      0.00000
   1349     247.1473      0.00000
   1350     247.1567      0.00000
   1351     247.1567      0.00000
   1352     247.1582      0.00000
   1353     247.1773      0.00000
   1354     247.1945      0.00000
   1355     247.2197      0.00000
   1356     247.2197      0.00000
   1357     247.2284      0.00000
   1358     257.5204      0.00000
   1359     257.6764      0.00000
   1360     257.6764      0.00000
   1361     257.7218      0.00000
   1362     257.7379      0.00000
   1363     257.7379      0.00000
   1364     257.7683      0.00000
   1365     257.8054      0.00000
   1366     261.8802      0.00000
   1367     262.3225      0.00000
   1368     262.3225      0.00000
   1369     262.4000      0.00000
   1370     262.7728      0.00000
   1371     262.7728      0.00000
   1372     262.8373      0.00000
   1373     262.8738      0.00000
   1374     262.9174      0.00000
   1375     262.9181      0.00000
   1376     262.9181      0.00000
   1377     262.9819      0.00000
   1378     262.9819      0.00000
   1379     262.9890      0.00000
   1380     262.9925      0.00000
   1381     262.9976      0.00000
   1382     263.0077      0.00000
   1383     263.0077      0.00000
   1384     263.0100      0.00000
   1385     263.0158      0.00000
   1386     263.0231      0.00000
   1387     263.0231      0.00000
   1388     263.0272      0.00000
   1389     263.0374      0.00000
   1390     263.0455      0.00000
   1391     263.0605      0.00000
   1392     263.0605      0.00000
   1393     263.0767      0.00000
   1394     263.1065      0.00000
   1395     263.1598      0.00000
   1396     263.2271      0.00000
   1397     263.2271      0.00000
   1398     263.2529      0.00000
   1399     263.2982      0.00000
   1400     263.3258      0.00000
   1401     263.3258      0.00000
   1402     263.3290      0.00000
   1403     263.3338      0.00000
   1404     263.3381      0.00000
   1405     263.3515      0.00000
   1406     263.3522      0.00000
   1407     263.3561      0.00000
   1408     263.3561      0.00000
   1409     263.3567      0.00000
   1410     263.3567      0.00000
   1411     263.3648      0.00000
[...]
   2352     365.2412      0.00000
   2353     365.2448      0.00000
   2354     365.2503      0.00000
   2355     365.2503      0.00000
   2356     365.2596      0.00000
   2357     365.2622      0.00000
   2358     365.2622      0.00000
   2359     365.2981      0.00000
   2360     365.3097      0.00000
   2361     365.3485      0.00000
   2362     365.3545      0.00000
   2363     365.3545      0.00000
   2364     365.3583      0.00000
   2365     365.3639      0.00000
   2366     365.3639      0.00000
   2367     365.3657      0.00000
   2368     365.3796      0.00000
   2369     365.5648      0.00000
   2370     365.5799      0.00000
   2371     365.5879      0.00000
   2372     365.5879      0.00000
   2373     365.7192      0.00000
   2374     369.7960      0.00000
   2375     370.0758      0.00000
   2376     370.1321      0.00000
   2377     370.1321      0.00000
   2378     370.3385      0.00000
   2379     370.3385      0.00000
   2380     370.3715      0.00000
   2381     370.3715      0.00000
   2382     370.3930      0.00000
   2383     370.3930      0.00000
   2384     370.3943      0.00000
   2385     370.3960      0.00000
   2386     370.4083      0.00000
   2387     370.4184      0.00000
   2388     370.4283      0.00000
   2389     370.4360      0.00000
   2390     370.4360      0.00000
   2391     370.4382      0.00000
   2392     370.4409      0.00000
   2393     370.4667      0.00000
   2394     370.4667      0.00000
   2395     370.4817      0.00000
   2396     370.4938      0.00000
   2397     370.5103      0.00000
   2398     370.5103      0.00000
   2399     370.5128      0.00000
   2400     370.5146      0.00000
   2401     370.5427      0.00000
   2402     370.5448      0.00000
   2403     370.5448      0.00000
   2404     370.5535      0.00000
   2405     370.5535      0.00000
   2406     370.5554      0.00000
   2407     370.5720      0.00000
   2408     370.5819      0.00000
   2409     370.5821      0.00000
   2410     370.5927      0.00000
   2411     370.5996      0.00000
   2412     370.6074      0.00000
   2413     370.6074      0.00000
   2414     370.6086      0.00000
   2415     370.6086      0.00000
   2416     370.6112      0.00000
   2417     370.6214      0.00000
   2418     370.6252      0.00000
   2419     370.6252      0.00000
   2420     370.6374      0.00000
   2421     370.6440      0.00000
   2422     370.6511      0.00000
   2423     370.6641      0.00000
   2424     370.6734      0.00000
   2425     370.6734      0.00000
   2426     370.6816      0.00000
   2427     370.6816      0.00000
   2428     370.6898      0.00000
   2429     370.7000      0.00000
   2430     370.7000      0.00000
   2431     370.7023      0.00000
   2432     370.7023      0.00000
   2433     370.7037      0.00000
   2434     370.7126      0.00000
   2435     370.7175      0.00000
   2436     370.7311      0.00000
   2437     370.7443      0.00000
   2438     370.7450      0.00000
   2439     370.7459      0.00000
   2440     370.7459      0.00000
   2441     370.7609      0.00000
   2442     370.7623      0.00000
   2443     370.7623      0.00000
   2444     370.7634      0.00000
   2445     370.7955      0.00000
   2446     370.8066      0.00000
   2447     370.8066      0.00000
   2448     370.8083      0.00000
   2449     370.8091      0.00000
   2450     370.8099      0.00000
   2451     370.8099      0.00000
   2452     370.8106      0.00000
   2453     370.8106      0.00000
   2454     370.8162      0.00000
   2455     370.8488      0.00000
   2456     370.8528      0.00000
   2457     370.8528      0.00000
   2458     370.8646      0.00000
   2459     370.8666      0.00000
   2460     370.8666      0.00000
   2461     370.8971      0.00000
   2462     370.9005      0.00000
   2463     370.9011      0.00000
   2464     370.9011      0.00000
   2465     371.2340      0.00000
   2466     371.2340      0.00000
   2467     371.3329      0.00000
   2468     371.9273      0.00000
   2469     372.0596      0.00000
   2470     375.5278      0.00000
   2471     375.6257      0.00000
   2472     375.6257      0.00000
   2473     375.6866      0.00000
   2474     375.7222      0.00000
   2475     375.7777      0.00000
   2476     375.7801      0.00000
   2477     375.7801      0.00000
   2478     375.7909      0.00000
   2479     375.7909      0.00000
   2480     375.8023      0.00000
   2481     375.8099      0.00000
   2482     375.8144      0.00000
   2483     375.8290      0.00000
   2484     375.8290      0.00000
   2485     375.8787      0.00000
   2486     375.8966      0.00000
   2487     375.9202      0.00000
   2488     375.9297      0.00000
   2489     375.9297      0.00000
   2490     375.9628      0.00000
   2491     376.0016      0.00000
   2492     376.0016      0.00000
   2493     376.0883      0.00000
   2494     376.0991      0.00000
   2495     376.0991      0.00000
   2496     376.1100      0.00000
   2497     376.1269      0.00000
   2498     376.1514      0.00000
   2499     376.1557      0.00000
   2500     376.1557      0.00000
   2501     376.1568      0.00000
   2502     376.1568      0.00000
   2503     376.1586      0.00000
   2504     376.1599      0.00000
   2505     376.1849      0.00000
   2506     376.1914      0.00000
   2507     376.1930      0.00000
   2508     376.1930      0.00000
   2509     376.1947      0.00000
   2510     376.1947      0.00000
   2511     376.1968      0.00000
   2512     376.1985      0.00000
   2513     376.2003      0.00000
   2514     376.3381      0.00000
   2515     376.7722      0.00000
   2516     376.8515      0.00000
   2517     376.8515      0.00000
   2518     386.3990      0.00000
   2519     386.5212      0.00000
   2520     386.5212      0.00000
   2521     386.5515      0.00000
   2522     386.6139      0.00000
   2523     386.6139      0.00000
   2524     386.6143      0.00000
   2525     386.6478      0.00000
   2526     386.6655      0.00000
   2527     386.6832      0.00000
   2528     386.6832      0.00000
   2529     386.6935      0.00000
   2530     386.6993      0.00000
   2531     386.7000      0.00000
   2532     386.7017      0.00000
   2533     386.7017      0.00000
   2534     386.7080      0.00000
   2535     386.7083      0.00000
   2536     386.7335      0.00000
   2537     386.7335      0.00000
   2538     386.7411      0.00000
   2539     386.7449      0.00000
   2540     386.7449      0.00000
   2541     386.7582      0.00000
   2542     386.7596      0.00000
   2543     386.7637      0.00000
   2544     386.7637      0.00000
   2545     386.7720      0.00000
   2546     386.7720      0.00000
   2547     386.7739      0.00000
   2548     386.7829      0.00000
   2549     386.9521      0.00000
   2550     387.0649      0.00000
   2551     387.0649      0.00000
   2552     387.2908      0.00000
   2553     387.3320      0.00000
   2554     391.6837      0.00000
   2555     391.8352      0.00000
   2556     391.8352      0.00000
   2557     391.8501      0.00000
   2558     391.9473      0.00000
   2559     391.9473      0.00000
   2560     391.9505      0.00000
   2561     391.9547      0.00000
   2562     391.9573      0.00000
   2563     391.9573      0.00000
   2564     391.9592      0.00000
   2565     391.9622      0.00000
   2566     391.9834      0.00000
   2567     392.0008      0.00000
   2568     392.0128      0.00000
   2569     392.0128      0.00000
   2570     392.0529      0.00000
   2571     392.0542      0.00000
   2572     392.0542      0.00000
   2573     392.0757      0.00000
   2574     392.0890      0.00000
   2575     392.0937      0.00000
   2576     392.0937      0.00000
   2577     392.0992      0.00000
   2578     392.1290      0.00000
   2579     392.1336      0.00000
   2580     392.1340      0.00000
   2581     392.1340      0.00000
   2582     392.1447      0.00000
   2583     392.1476      0.00000
   2584     392.1478      0.00000
   2585     392.1489      0.00000
   2586     392.1489      0.00000
   2587     392.1569      0.00000
   2588     392.1569      0.00000
   2589     392.1589      0.00000
   2590     392.1589      0.00000
   2591     392.1614      0.00000
   2592     392.1628      0.00000
   2593     392.2131      0.00000
   2594     392.2131      0.00000
   2595     392.2296      0.00000
   2596     392.2330      0.00000
   2597     392.6065      0.00000
   2598     392.6065      0.00000
   2599     392.6271      0.00000
   2600     392.7238      0.00000
   2601     392.7656      0.00000
   2602     396.5799      0.00000
   2603     396.9091      0.00000
   2604     396.9091      0.00000
   2605     396.9188      0.00000
   2606     397.1967      0.00000
   2607     397.1967      0.00000
   2608     397.1973      0.00000
   2609     397.2124      0.00000
   2610     397.2317      0.00000
   2611     397.2317      0.00000
   2612     397.2593      0.00000
   2613     397.2593      0.00000
   2614     397.2620      0.00000
   2615     397.2707      0.00000
   2616     397.2790      0.00000
   2617     397.2859      0.00000
   2618     397.3016      0.00000
   2619     397.3133      0.00000
   2620     397.3133      0.00000
   2621     397.3140      0.00000
   2622     397.3224      0.00000
   2623     397.3224      0.00000
   2624     397.3308      0.00000
   2625     397.3356      0.00000
   2626     397.3356      0.00000
   2627     397.3395      0.00000
   2628     397.3499      0.00000
   2629     397.3521      0.00000
   2630     397.3557      0.00000
   2631     397.3577      0.00000
   2632     397.3577      0.00000
   2633     397.3654      0.00000
   2634     397.3773      0.00000
   2635     397.3803      0.00000
   2636     397.3804      0.00000
   2637     397.3828      0.00000
   2638     397.3828      0.00000
   2639     397.4047      0.00000
   2640     397.4047      0.00000
   2641     397.4289      0.00000
   2642     397.4342      0.00000
   2643     397.4400      0.00000
   2644     397.4400      0.00000
   2645     397.4832      0.00000
   2646     397.4860      0.00000
   2647     397.4860      0.00000
   2648     397.4902      0.00000
   2649     397.4908      0.00000
   2650     397.4908      0.00000
   2651     397.4914      0.00000
   2652     397.4927      0.00000
   2653     397.5054      0.00000
   2654     397.5093      0.00000
   2655     397.5093      0.00000
   2656     397.5142      0.00000
   2657     397.5142      0.00000
   2658     397.5169      0.00000
   2659     397.5248      0.00000
   2660     397.5266      0.00000
   2661     397.5307      0.00000
   2662     397.5307      0.00000
   2663     397.5331      0.00000
   2664     397.5332      0.00000
   2665     397.5373      0.00000
   2666     397.5373      0.00000
   2667     397.5545      0.00000
   2668     397.5591      0.00000
   2669     397.5631      0.00000
   2670     397.5651      0.00000
   2671     397.5662      0.00000
   2672     397.5697      0.00000
   2673     397.5715      0.00000
   2674     397.5715      0.00000
   2675     397.5752      0.00000
   2676     397.5907      0.00000
   2677     397.5907      0.00000
   2678     397.5973      0.00000
   2679     397.5973      0.00000
   2680     397.6033      0.00000
   2681     397.6097      0.00000
   2682     397.6097      0.00000
   2683     397.6128      0.00000
   2684     397.6204      0.00000
   2685     397.6288      0.00000
   2686     397.6290      0.00000
   2687     397.6314      0.00000
   2688     397.6314      0.00000
   2689     397.6320      0.00000
   2690     397.6410      0.00000
   2691     397.6410      0.00000
   2692     397.6427      0.00000
   2693     397.6499      0.00000
   2694     397.6499      0.00000
   2695     397.6499      0.00000
   2696     397.6515      0.00000
   2697     397.6521      0.00000
   2698     397.6544      0.00000
   2699     397.6552      0.00000
   2700     397.6556      0.00000
   2701     397.6556      0.00000
   2702     397.6599      0.00000
   2703     397.6599      0.00000
   2704     397.6618      0.00000
   2705     397.6797      0.00000
   2706     397.6797      0.00000
   2707     397.6884      0.00000
   2708     397.6932      0.00000
   2709     397.6932      0.00000
   2710     397.6988      0.00000
   2711     397.7011      0.00000
   2712     397.7210      0.00000
   2713     397.7210      0.00000
   2714     397.7225      0.00000
   2715     397.7249      0.00000
   2716     397.7365      0.00000
   2717     399.3233      0.00000
   2718     399.3233      0.00000
   2719     399.5275      0.00000
   2720     399.5959      0.00000
   2721     399.7280      0.00000
   2722   10000.0000      0.00000
   2723   10000.0000      0.00000
   2724   10000.0000      0.00000
   2725   10000.0000      0.00000
   2726   10000.0000      0.00000
   2727   10000.0000      0.00000
   2728   10000.0000      0.00000
   2729   10000.0000      0.00000
   2730   10000.0000      0.00000
   2731   10000.0000      0.00000
   2732   10000.0000      0.00000
   2733   10000.0000      0.00000
   2734   10000.0000      0.00000
   2735   10000.0000      0.00000
   2736   10000.0000      0.00000


--------------------------------------------------------------------------------------------------------


 soft charge-density along one line, spin component           1
         0         1         2         3         4         5         6         7         8         9
 total charge-density along one line
 
 pseudopotential strength for first ion, spin component:           1
  0.613  -3.123  -0.000  -0.020  -0.000  -0.000   0.066   0.000
 -3.123  16.843   0.000   0.056   0.000  -0.000  -0.264  -0.000
 -0.000   0.000  -4.241   0.000  -0.000   8.091  -0.000  -0.000
 -0.020   0.056   0.000  -4.238   0.000  -0.000   8.097   0.000
 -0.000   0.000  -0.000   0.000  -4.241  -0.000   0.000   8.091
 -0.000  -0.000   8.091  -0.000  -0.000 -42.564  -0.000   0.000
  0.066  -0.264  -0.000   8.097   0.000  -0.000 -42.598  -0.000
  0.000  -0.000  -0.000   0.000   8.091   0.000  -0.000 -42.564
  0.000  -0.000  -0.000  -0.000  -0.000   0.000  -0.000   0.000
  0.000  -0.000   0.003  -0.000  -0.000   0.015  -0.000  -0.000
 -0.001   0.003   0.000   0.003   0.000  -0.000   0.017  -0.000
  0.000  -0.000  -0.000  -0.000   0.003  -0.000  -0.000   0.015
  0.000  -0.000   0.000  -0.000  -0.000  -0.000  -0.000   0.000
 total augmentation occupancy for first ion, spin component:           1
  1.101   0.032   0.000   0.332   0.000  -0.000   0.018  -0.000  -0.000  -0.000   0.156   0.000   0.000
  0.032   0.001   0.000   0.010   0.000  -0.000   0.001  -0.000  -0.000  -0.000   0.004   0.000   0.000
  0.000   0.000   0.000   0.000   0.000  -0.000   0.000  -0.000  -0.000  -0.000   0.000   0.000   0.000
  0.332   0.010   0.000   0.100   0.000  -0.000   0.005  -0.000  -0.000  -0.000   0.047   0.000   0.000
  0.000   0.000   0.000   0.000   0.000  -0.000   0.000  -0.000  -0.000  -0.000   0.000   0.000   0.000
 -0.000  -0.000  -0.000  -0.000  -0.000   0.000  -0.000   0.000   0.000   0.000  -0.000  -0.000  -0.000
  0.018   0.001   0.000   0.005   0.000  -0.000   0.000  -0.000  -0.000  -0.000   0.003   0.000   0.000
 -0.000  -0.000  -0.000  -0.000  -0.000   0.000  -0.000   0.000   0.000   0.000  -0.000  -0.000  -0.000
 -0.000  -0.000  -0.000  -0.000  -0.000   0.000  -0.000   0.000   0.000   0.000  -0.000  -0.000  -0.000
 -0.000  -0.000  -0.000  -0.000  -0.000   0.000  -0.000   0.000   0.000   0.000  -0.000  -0.000  -0.000
  0.156   0.004   0.000   0.047   0.000  -0.000   0.003  -0.000  -0.000  -0.000   0.022   0.000   0.000
  0.000   0.000   0.000   0.000   0.000  -0.000   0.000  -0.000  -0.000  -0.000   0.000   0.000   0.000
  0.000   0.000   0.000   0.000   0.000  -0.000   0.000  -0.000  -0.000  -0.000   0.000   0.000   0.000


------------------------ aborting loop because EDIFF is reached ----------------------------------------


    CHARGE:  cpu time      0.0028: real time      0.0028
    FORLOC:  cpu time      0.0003: real time      0.0003
    FORHF :  cpu time      0.0080: real time      0.0081
    FORNL :  cpu time      0.0084: real time      0.0084
    FORCOR:  cpu time      0.0069: real time      0.0070
    FORHAR:  cpu time      0.0014: real time      0.0014
    MIXING:  cpu time      0.0001: real time      0.0001
    OFIELD:  cpu time      0.0001: real time      0.0001

 VOLUME and BASIS-vectors are now :
 -----------------------------------------------------------------------------
  energy-cutoff  :      400.00
  volume of cell :      148.20
      direct lattice vectors                 reciprocal lattice vectors
     5.291954090  0.000000000  0.000000000     0.188966114  0.000000000  0.000000000
     0.000000000  5.291954090  0.000000000     0.000000000  0.188966114  0.000000000
     0.000000000  0.000000000  5.291954090     0.000000000  0.000000000  0.188966114

  length of vectors
     5.291954090  5.291954090  5.291954090     0.188966114  0.188966114  0.188966114


 FORCES acting on ions
    electron-ion (+dipol)            ewald-force                    non-local-force                 convergence-correction
 -----------------------------------------------------------------------------------------------
   -.280E-11 -.373E-12 0.470E+01   0.157E-17 0.848E-17 -.463E+01   -.373E-10 -.133E-10 -.920E+00   -.656E-11 -.223E-11 0.110E-04
   -.183E-09 -.772E-10 -.301E+01   -.431E-17 -.606E-17 0.463E+01   -.109E-09 -.420E-10 -.680E+00   -.445E-09 -.177E-09 -.653E-05
 -----------------------------------------------------------------------------------------------
   -.186E-09 -.776E-10 0.169E+01   -.274E-17 0.243E-17 0.000E+00   -.147E-09 -.553E-10 -.160E+01   -.451E-09 -.179E-09 0.444E-05
 
 
 POSITION                                       TOTAL-FORCE (eV/Angst)
 -----------------------------------------------------------------------------------
      0.00000      0.00000      0.00000         0.000000      0.000000     -0.881578
      0.00000      0.00000      1.62106        -0.000000     -0.000000      0.881578
 -----------------------------------------------------------------------------------
    total drift:                               -0.000000     -0.000000      0.000011


--------------------------------------------------------------------------------------------------------



  FREE ENERGIE OF THE ION-ELECTRON SYSTEM (eV)
  ---------------------------------------------------
  free  energy   TOTEN  =        -8.67290055 eV

  energy  without entropy=       -8.67290055  energy(sigma->0) =       -8.67290055
 


--------------------------------------------------------------------------------------------------------


    POTLOK:  cpu time      0.0080: real time      0.0081


--------------------------------------------------------------------------------------------------------


 writing wavefunctions
     LOOP+:  cpu time      9.4333: real time      9.5344
    4ORBIT:  cpu time      0.0000: real time      0.0000

 total amount of memory used by VASP MPI-rank0    82927. kBytes
=======================================================================

   base      :      30000. kBytes
   nonl-proj :        334. kBytes
   fftplans  :        538. kBytes
   grid      :       2479. kBytes
   one-center:          8. kBytes
   HF        :         67. kBytes
   nonlr-proj:        352. kBytes
   wavefun   :       1291. kBytes
   fock_wrk  :      47858. kBytes
 
  
  
 General timing and accounting informations for this job:
 ========================================================
  
                  Total CPU time used (sec):       11.056
                            User time (sec):       10.089
                          System time (sec):        0.967
                         Elapsed time (sec):       11.349
  
                   Maximum memory used (kb):      479056.
                   Average memory used (kb):          N/A
  
                          Minor page faults:       104123
                          Major page faults:         6310
                 Voluntary context switches:         2007
