 vasp.6.3.0 20Jan22 (build Mar 06 2023 08:06:32) gamma-only                     
  
 executed on             LinuxIFC date 2025.05.22  11:36:48
 running on   48 total cores
 distrk:  each k-point on   48 cores,    1 groups
 distr:  one band on NCORE=   1 cores,   48 groups


--------------------------------------------------------------------------------------------------------


 INCAR:
   ENCUT = 400
   SIGMA = 0.001
   EDIFF = 1E-6
   LHFCALC = .TRUE.
   AEXX = 1.0
   ISYM = -1
   ALGO = sub
   NELM = 1
   NBANDS = 4697
   ISYM = -1
   PREC = Accurate

 POTCAR:    PAW_PBE Li_GW 23Jun2021               
 POTCAR:    PAW_PBE H_GW 21Apr2008                
 -----------------------------------------------------------------------------
|                                                                             |
|           W    W    AA    RRRRR   N    N  II  N    N   GGGG   !!!           |
|           W    W   A  A   R    R  NN   N  II  NN   N  G    G  !!!           |
|           W    W  A    A  R    R  N N  N  II  N N  N  G       !!!           |
|           W WW W  AAAAAA  RRRRR   N  N N  II  N  N N  G  GGG   !            |
|           WW  WW  A    A  R   R   N   NN  II  N   NN  G    G                |
|           W    W  A    A  R    R  N    N  II  N    N   GGGG   !!!           |
|                                                                             |
|     For optimal performance we recommend to set                             |
|       NCORE = 2 up to number-of-cores-per-socket                            |
|     NCORE specifies how many cores store one orbital (NPAR=cpu/NCORE).      |
|     This setting can greatly improve the performance of VASP for DFT.       |
|     The default, NCORE=1 might be grossly inefficient on modern             |
|     multi-core architectures or massively parallel machines. Do your        |
|     own testing! More info at https://www.vasp.at/wiki/index.php/NCORE      |
|     Unfortunately you need to use the default for GW and RPA                |
|     calculations (for HF NCORE is supported but not extensively tested      |
|     yet).                                                                   |
|                                                                             |
 -----------------------------------------------------------------------------

 POTCAR:    PAW_PBE Li_GW 23Jun2021               
   SHA256 =  8825fb35c7e4969bc2ee643901f25156348bca79849b21eacd5f3f060d4d23e8 Li_GW/POTCAR          
   COPYR  = (c) Copyright 23Jun2021 Georg Kresse                                                    
   COPYR  = This file is part of the software VASP. Any use, copying, and all other rights are regul
   COPYR  = If you do not have a valid VASP license, you may not use, copy or distribute this file. 
   VRHFIN =Li: s1p0                                                                                 
   LEXCH  = PE                                                                                      
   EATOM  =     5.3001 eV,    0.3895 Ry                                                             
                                                                                                    
   TITEL  = PAW_PBE Li_GW 23Jun2021                                                                 
   LULTRA =        F    use ultrasoft PP ?                                                          
   IUNSCR =        1    unscreen: 0-lin 1-nonlin 2-no                                               
   RPACOR =    1.500    partial core radius                                                         
   POMASS =    7.010; ZVAL   =    1.000    mass and valenz                                          
   RCORE  =    2.100    outmost cutoff radius                                                       
   RWIGS  =    2.600; RWIGS  =    1.376    wigner-seitz radius (au A)                               
   ENMAX  =  112.104; ENMIN  =   84.078 eV                                                          
   RCLOC  =    2.012    cutoff for local pot                                                        
   LCOR   =        T    correct aug charges                                                         
   LPAW   =        T    paw PP                                                                      
   EAUG   =  483.286                                                                                
   DEXC   =   -0.000                                                                                
   RMAX   =    2.149    core radius for proj-oper                                                   
   RAUG   =    1.300    factor for augmentation sphere                                              
   RDEP   =    2.232    radius for radial grids                                                     
   RDEPT  =    1.854    core radius for aug-charge                                                  
                                                                                                    
   Atomic configuration                                                                             
    4 entries                                                                                       
     n  l   j            E        occ.                                                              
     1  0  0.50       -51.8549   2.0000                                                             
     2  0  0.50        -2.8742   1.0000                                                             
     2  1  0.50        -2.8708   0.0000                                                             
     3  2  1.50        -1.3606   0.0000                                                             
   Description                                                                                      
     l       E           TYP  RCUT    TYP  RCUT                                                     
     0     -2.8742051     23  2.100                                                                 
     0     54.4233040     23  2.100                                                                 
     1     -2.8708293     23  2.050                                                                 
     1     54.4233040     23  2.050                                                                 
     2     -1.3605826     23  2.050                                                                 
  local pseudopotential read in
  partial core-charges read in
  partial kinetic energy density read in
  kinetic energy density of atom read in
  atomic valenz-charges read in
  non local Contribution for L=           0  read in
    real space projection operators read in
  non local Contribution for L=           0  read in
    real space projection operators read in
  non local Contribution for L=           1  read in
    real space projection operators read in
  non local Contribution for L=           1  read in
    real space projection operators read in
  non local Contribution for L=           2  read in
    real space projection operators read in
    PAW grid and wavefunctions read in
 
   number of l-projection  operators is LMAX  =           5
   number of lm-projection operators is LMMAX =          13
 
 POTCAR:    PAW_PBE H_GW 21Apr2008                
   SHA256 =  cecc88617a3d1ece9865646f5d462fc0f44fd1f68d6f2eb08f18a2e421902afb H_GW/POTCAR           
   COPYR  = (c) Copyright 21Apr2008 Georg Kresse                                                    
   COPYR  = This file is part of the software VASP. Any use, copying, and all other rights are regul
   COPYR  = If you do not have a valid VASP license, you may not use, copy or distribute this file. 
   VRHFIN =H: ultrasoft test                                                                        
   LEXCH  = PE                                                                                      
   EATOM  =    12.4884 eV,    0.9179 Ry                                                             
                                                                                                    
   TITEL  = PAW_PBE H_GW 21Apr2008                                                                  
   LULTRA =        F    use ultrasoft PP ?                                                          
   IUNSCR =        0    unscreen: 0-lin 1-nonlin 2-no                                               
   RPACOR =    0.000    partial core radius                                                         
   POMASS =    1.000; ZVAL   =    1.000    mass and valenz                                          
   RCORE  =    1.100    outmost cutoff radius                                                       
   RWIGS  =    1.100; RWIGS  =    0.582    wigner-seitz radius (au A)                               
   ENMAX  =  300.000; ENMIN  =  250.000 eV                                                          
   RCLOC  =    0.701    cutoff for local pot                                                        
   LCOR   =        T    correct aug charges                                                         
   LPAW   =        T    paw PP                                                                      
   EAUG   =  500.000                                                                                
   RMAX   =    1.123    core radius for proj-oper                                                   
   RAUG   =    1.200    factor for augmentation sphere                                              
   RDEP   =    1.112    radius for radial grids                                                     
   RDEPT  =    1.100    core radius for aug-charge                                                  
                                                                                                    
   Atomic configuration                                                                             
    3 entries                                                                                       
     n  l   j            E        occ.                                                              
     1  0  0.50        -6.4927   1.0000                                                             
     2  1  0.50        -3.4015   0.0000                                                             
     3  2  1.50        13.6058   0.0000                                                             
   Description                                                                                      
     l       E           TYP  RCUT    TYP  RCUT                                                     
     0     -6.4927495     23  0.950                                                                 
     0      6.8029130     23  0.950                                                                 
     1     -4.0817478     23  1.100                                                                 
     1    108.8466080     23  1.100                                                                 
     2     81.6349560     23  1.100                                                                 
  local pseudopotential read in
  kinetic energy density of atom read in
  atomic valenz-charges read in
  non local Contribution for L=           0  read in
    real space projection operators read in
  non local Contribution for L=           0  read in
    real space projection operators read in
  non local Contribution for L=           1  read in
    real space projection operators read in
  non local Contribution for L=           1  read in
    real space projection operators read in
  non local Contribution for L=           2  read in
    real space projection operators read in
    PAW grid and wavefunctions read in
 
   number of l-projection  operators is LMAX  =           5
   number of lm-projection operators is LMMAX =          13
 
  PAW_PBE Li_GW 23Jun2021               :
 energy of atom  1       EATOM=   -5.3001
 kinetic energy error for atom=    0.0000 (will be added to EATOM!!)
  PAW_PBE H_GW 21Apr2008                :
 energy of atom  2       EATOM=  -12.4884
 kinetic energy error for atom=    0.0317 (will be added to EATOM!!)
 
 
 POSCAR: LiH
  positions in cartesian coordinates
  No initial velocities read in
 exchange correlation table for  LEXCH =        8
   RHO(1)=    0.500       N(1)  =     2000
   RHO(2)=  100.500       N(2)  =     4000
 


--------------------------------------------------------------------------------------------------------


 ion  position               nearest neighbor table
   1  0.000  0.000  0.000-   2 1.62
   2  0.000  0.000  0.255-   1 1.62
 

IMPORTANT INFORMATION: All symmetrisations will be switched off!
NOSYMM: (Re-)initialisation of all symmetry stuff for point group C_1.


----------------------------------------------------------------------------------------

                                     Primitive cell                                     

  volume of cell :     256.0500

  direct lattice vectors                    reciprocal lattice vectors
     6.350017565  0.000000000  0.000000000     0.157479879  0.000000000  0.000000000
     0.000000000  6.350017565  0.000000000     0.000000000  0.157479879  0.000000000
     0.000000000  0.000000000  6.350017565     0.000000000  0.000000000  0.157479879

  length of vectors
     6.350017565  6.350017565  6.350017565     0.157479879  0.157479879  0.157479879

  position of ions in fractional coordinates (direct lattice)
     0.000000000  0.000000000  0.000000000
     0.000000000  0.000000000  0.255284797

  ion indices of the primitive-cell ions
   primitive index   ion index
                 1           1
                 2           2

----------------------------------------------------------------------------------------

 
 
 KPOINTS: Automatically generated mesh            

Automatic generation of k-mesh.
 Grid dimensions read from file:
 generate k-points for:    1    1    1

 Generating k-lattice:

  Cartesian coordinates                     Fractional coordinates (reciprocal lattice)
     0.157479879  0.000000000  0.000000000     1.000000000  0.000000000  0.000000000
     0.000000000  0.157479879  0.000000000     0.000000000  1.000000000  0.000000000
     0.000000000  0.000000000  0.157479879     0.000000000  0.000000000  1.000000000

  Length of vectors
     0.157479879  0.157479879  0.157479879

  Shift w.r.t. Gamma in fractional coordinates (k-lattice)
     0.000000000  0.000000000  0.000000000

 
 Subroutine IBZKPT returns following result:
 ===========================================
 
 Found      1 irreducible k-points:
 
 Following reciprocal coordinates:
            Coordinates               Weight
  0.000000  0.000000  0.000000      1.000000
 
 Following cartesian coordinates:
            Coordinates               Weight
  0.000000  0.000000  0.000000      1.000000
 
 WARNING: full set of k-points will be restricted to regular points only.

 
 Subroutine IBZKPT_HF returns following result:
 ==============================================
 
 Found      1 k-points in 1st BZ
 the following      1 k-points will be used (e.g. in the exchange kernel)
 Following reciprocal coordinates:   # in IRBZ
  0.000000  0.000000  0.000000    1.00000000   1 t-inv F
 -----------------------------------------------------------------------------
|                                                                             |
|           W    W    AA    RRRRR   N    N  II  N    N   GGGG   !!!           |
|           W    W   A  A   R    R  NN   N  II  NN   N  G    G  !!!           |
|           W    W  A    A  R    R  N N  N  II  N N  N  G       !!!           |
|           W WW W  AAAAAA  RRRRR   N  N N  II  N  N N  G  GGG   !            |
|           WW  WW  A    A  R   R   N   NN  II  N   NN  G    G                |
|           W    W  A    A  R    R  N    N  II  N    N   GGGG   !!!           |
|                                                                             |
|     The number of bands has been changed from the values supplied in        |
|     the INCAR file. This is a result of running the parallel version.       |
|     The orbitals not found in the WAVECAR file will be initialized with     |
|     random numbers, which is usually adequate. For correlated               |
|     calculations, however, you should redo the groundstate calculation.     |
|     I found NBANDS = 4697. Now, NBANDS = 4704.                              |
|                                                                             |
 -----------------------------------------------------------------------------



--------------------------------------------------------------------------------------------------------




 Dimension of arrays:
   k-points           NKPTS =      1   k-points in BZ     NKDIM =      1   number of bands    NBANDS=   4704
   number of dos      NEDOS =    301   number of ions     NIONS =      2
   non local maximal  LDIM  =      5   non local SUM 2l+1 LMDIM =     13
   total plane-waves  NPLWV =  74088
   max r-space proj   IRMAX =      1   max aug-charges    IRDMAX=  11417
   dimension x,y,z NGX =    42 NGY =   42 NGZ =   42
   dimension x,y,z NGXF=    84 NGYF=   84 NGZF=   84
   support grid    NGXF=    84 NGYF=   84 NGZF=   84
   ions per type =               1   1
   NGX,Y,Z   is equivalent  to a cutoff of  11.00, 11.00, 11.00 a.u.
   NGXF,Y,Z  is equivalent  to a cutoff of  21.99, 21.99, 21.99 a.u.

 SYSTEM =  unknown system                          
 POSCAR =  LiH                                     

 Startparameter for this run:
   NWRITE =      2    write-flag & timer
   PREC   = accura    normal or accurate (medium, high low for compatibility)
   ISTART =      1    job   : 0-new  1-cont  2-samecut
   ICHARG =      0    charge: 1-file 2-atom 10-const
   ISPIN  =      1    spin polarized calculation?
   LNONCOLLINEAR =      F non collinear calculations
   LSORBIT =      F    spin-orbit coupling
   INIWAV =      1    electr: 0-lowe 1-rand  2-diag
   LASPH  =      F    aspherical Exc in radial PAW
 Electronic Relaxation 1
   ENCUT  =  400.0 eV  29.40 Ry    5.42 a.u.  10.36 10.36 10.36*2*pi/ulx,y,z
   ENINI  =  400.0     initial cutoff
   ENAUG  =  500.0 eV  augmentation charge cutoff
   NELM   =      1;   NELMIN=  2; NELMDL=  0     # of ELM steps 
   EDIFF  = 0.1E-05   stopping-criterion for ELM
   LREAL  =      F    real-space projection
   NLSPLINE    = F    spline interpolate recip. space projectors
   LCOMPAT=      F    compatible to vasp.4.4
   GGA_COMPAT  = T    GGA compatible to vasp.4.4-vasp.4.6
   LMAXPAW     = -100 max onsite density
   LMAXMIX     =    2 max onsite mixed and CHGCAR
   VOSKOWN=      0    Vosko Wilk Nusair interpolation
   ROPT   =    0.00000   0.00000
 Ionic relaxation
   EDIFFG = 0.1E-04   stopping-criterion for IOM
   NSW    =      0    number of steps for IOM
   NBLOCK =      1;   KBLOCK =      1    inner block; outer block 
   IBRION =     -1    ionic relax: 0-MD 1-quasi-New 2-CG
   NFREE  =      0    steps in history (QN), initial steepest desc. (CG)
   ISIF   =      0    stress and relaxation
   IWAVPR =     10    prediction:  0-non 1-charg 2-wave 3-comb
   ISYM   =     -1    0-nonsym 1-usesym 2-fastsym
   LCORR  =      T    Harris-Foulkes like correction to forces

   POTIM  = 0.5000    time-step for ionic-motion
   TEIN   =    0.0    initial temperature
   TEBEG  =    0.0;   TEEND  =   0.0 temperature during run
   SMASS  =  -3.00    Nose mass-parameter (am)
   estimated Nose-frequenzy (Omega)   =  0.10E-29 period in steps = 0.13E+47 mass=  -0.921E-27a.u.
   SCALEE = 1.0000    scale energy and forces
   NPACO  =    256;   APACO  = 10.0  distance and # of slots for P.C.
   PSTRESS=    0.0 pullay stress

  Mass of Ions in am
   POMASS =   7.01  1.00
  Ionic Valenz
   ZVAL   =   1.00  1.00
  Atomic Wigner-Seitz radii
   RWIGS  =  -1.00 -1.00
  virtual crystal weights 
   VCA    =   1.00  1.00
   NELECT =       2.0000    total number of electrons
   NUPDOWN=      -1.0000    fix difference up-down

 DOS related values:
   EMIN   =  10.00;   EMAX   =-10.00  energy-range for DOS
   EFERMI =   0.00
   ISMEAR =     1;   SIGMA  =   0.00  broadening in eV -4-tet -1-fermi 0-gaus

 Electronic relaxation 2 (details)
   IALGO  =      4    algorithm
   LDIAG  =      T    sub-space diagonalisation (order eigenvalues)
   LSUBROT=      F    optimize rotation matrix (better conditioning)
   TURBO    =      0    0=normal 1=particle mesh
   IRESTART =      0    0=no restart 2=restart with 2 vectors
   NREBOOT  =      0    no. of reboots
   NMIN     =      0    reboot dimension
   EREF     =   0.00    reference energy to select bands
   IMIX   =      1    mixing-type and parameters
     AMIX     =   0.40;   BMIX     =  1.00
     AMIX_MAG =   1.60;   BMIX_MAG =  1.00
     AMIN     =   0.10
     WC   =   100.;   INIMIX=   1;  MIXPRE=   1;  MAXMIX= -45

 Intra band minimization:
   WEIMIN = 0.0000     energy-eigenvalue tresh-hold
   EBREAK =  0.53E-10  absolut break condition
   DEPER  =   0.30     relativ break condition  

   TIME   =   0.40     timestep for ELM

  volume/ion in A,a.u.               =     128.02       863.96
  Fermi-wavevector in a.u.,A,eV,Ry     =   0.324820  0.613821  1.435527  0.105508
  Thomas-Fermi vector in A             =   1.215278
 
 Write flags
   LWAVE        =      T    write WAVECAR
   LDOWNSAMPLE  =      F    k-point downsampling of WAVECAR
   LCHARG       =      T    write CHGCAR
   LVTOT        =      F    write LOCPOT, total local potential
   LVHAR        =      F    write LOCPOT, Hartree potential only
   LELF         =      F    write electronic localiz. function (ELF)
   LORBIT       =      0    0 simple, 1 ext, 2 COOP (PROOUT), +10 PAW based schemes


 Dipole corrections
   LMONO  =      F    monopole corrections only (constant potential shift)
   LDIPOL =      F    correct potential (dipole corrections)
   IDIPOL =      0    1-x, 2-y, 3-z, 4-all directions 
   EPSILON=  1.0000000 bulk dielectric constant

 Exchange correlation treatment:
   GGA     =    --    GGA type
   LEXCH   =     8    internal setting for exchange type
   LIBXC   =     F    Libxc                    
   VOSKOWN =     0    Vosko Wilk Nusair interpolation
   EXXOEP  =     0    0=HF, 1=EXX-LHF (local Hartree Fock) 2=EXX OEP
   LHFCALC =     T    Hartree Fock is set to
   LSYMGRAD=     F    symmetrize gradient (conserves proper symmetry)
   PRECFOCK=normal    Normal, Fast or Accurate (Low or Medium for compatibility)
   LRHFCALC=     F    long range Hartree Fock
   LRSCOR  =     F    long range correlation only (use DFT for short range part)
   LTHOMAS =     F    Thomas Fermi screening in HF
   LMODELHF=     F    short range full HF, long range fraction AEXX
   LFOCKACE=     T    use Adeptively-Compressed-Exchange operator
   ENCUT4O =  -1.0   cutoff for four orbital integrals eV
   LMAXFOCK=     4    L truncation for augmentation on plane wave grid
   LMAXFOCKAE=  -1    L truncation for all-electron charge restoration on plane wave grid
   NMAXFOCKAE=   1    number of basis functions for all-electron charge restoration
   LFOCKAEDFT=     F  apply the AE augmentation even for DFT
   NKREDX  =     1    reduce k-point grid by
   NKREDY  =     1    reduce k-point grid by
   NKREDZ  =     1    reduce k-point grid by
   SHIFTRED=     F    shift reduced grid of Gamma
   HFKIDENT=     F    idential grid for each k-point
   ODDONLY =     F    use only odd q-grid points
   EVENONLY=     F    use only even q-grid points
   HFALPHA =   -1.0000 decay constant for conv. correction
   MCALPHA =    0.0000 extent of test-charge in conv. correction in multipole expansion
   AEXX    =    1.0000 exact exchange contribution
   HFSCREEN=    0.0000 screening length (either q_TF or 0.3 A-1)
   HFSCREENC=   0.0000 screening length for correlation (either q_TF or 0.3 A-1)
   HFRCUT  =    0.0000 spherical cutoff for potential kernel
   HFRCUTSOFT=    0.0000 smooth spherical cutoff for potential kernel
   SLABRCUT=    0.0000 cutoff in one direction for potential kernel
   SLABRCUT_DIRECTION=   3 cutoff direction for SLABRCUT
   ERFCRAY_SCREEN=    0.0000 screening factor for erfc+rayleigh like screening for potential kernel
   RAYLEXP=    0.0000  rayleigh exponent in erfc+rayleigh like screening
   ALDAX   =    0.0000 LDA exchange part
   AGGAX   =    0.0000 GGA exchange part
   ALDAC   =    0.0000 LDA correlation
   AGGAC   =    0.0000 GGA correlation
   ENCUTFOCK=  -1.0 apply spherical cutoff to Coloumb kernel
   NBANDSGWLOW=     1    first orbital included in HF term
   NBLOCK_FOCK=    64    blocking factor in FOCK_ACC

 Linear response parameters
   LEPSILON=     F    determine dielectric tensor
   LRPA    =     F    only Hartree local field effects (RPA)
   LNABLA  =     F    use nabla operator in PAW spheres
   LVEL    =     F    velocity operator in full k-point grid
   CSHIFT  =0.1000    complex shift for real part using Kramers Kronig
   OMEGAMAX=  -1.0    maximum frequency
   DEG_THRESHOLD= 0.2000000E-02 threshold for treating states as degnerate
   RTIME   =   -0.100 relaxation time in fs
  (WPLASMAI=    0.000 imaginary part of plasma frequency in eV, 0.658/RTIME)
   DFIELD  = 0.0000000 0.0000000 0.0000000 field for delta impulse in time
 
  Optional k-point grid parameters
   LKPOINTS_OPT  =     F    use optional k-point grid
   KPOINTS_OPT_MODE=     1    mode for optional k-point grid
 
 Orbital magnetization related:
   ORBITALMAG=     F  switch on orbital magnetization
   LCHIMAG   =     F  perturbation theory with respect to B field
   DQ        =  0.001000  dq finite difference perturbation B field
   LLRAUG    =     F  two centre corrections for induced B field



--------------------------------------------------------------------------------------------------------


 Static calculation
 charge density and potential will be updated during run
 non-spin polarized calculation
 Subrot: only subspace diagonalization (rotation)
    band-by band algorithm
 perform sub-space diagonalisation
    before iterative eigenvector-optimisation
 Kerker-like  mixing scheme
 using additional bands         4703
 reciprocal scheme for non local part
 use partial core corrections
 calculate Harris-corrections to forces 
   (improved forces if not selfconsistent)
 use gradient corrections 
 use of overlap-Matrix (Vanderbilt PP)
 Methfessel and Paxton  Order N= 1 SIGMA  =   0.00


--------------------------------------------------------------------------------------------------------


  energy-cutoff  :      400.00
  volume of cell :      256.05
      direct lattice vectors                 reciprocal lattice vectors
     6.350017565  0.000000000  0.000000000     0.157479879  0.000000000  0.000000000
     0.000000000  6.350017565  0.000000000     0.000000000  0.157479879  0.000000000
     0.000000000  0.000000000  6.350017565     0.000000000  0.000000000  0.157479879

  length of vectors
     6.350017565  6.350017565  6.350017565     0.157479879  0.157479879  0.157479879


 
 old parameters found on file WAVECAR:
  energy-cutoff  :      400.00
  volume of cell :      256.05
      direct lattice vectors                 reciprocal lattice vectors
     6.350017565  0.000000000  0.000000000     0.157479879  0.000000000  0.000000000
     0.000000000  6.350017565  0.000000000     0.000000000  0.157479879  0.000000000
     0.000000000  0.000000000  6.350017565     0.000000000  0.000000000  0.157479879

  length of vectors

 
 k-points in units of 2pi/SCALE and weight: Automatically generated mesh            
   0.00000000  0.00000000  0.00000000       1.000
 
 k-points in reciprocal lattice and weights: Automatically generated mesh            
   0.00000000  0.00000000  0.00000000       1.000
 
 position of ions in fractional coordinates (direct lattice) 
   0.00000000  0.00000000  0.00000000
   0.00000000  0.00000000  0.25528480
 
 position of ions in cartesian coordinates  (Angst):
   0.00000000  0.00000000  0.00000000
   0.00000000  0.00000000  1.62106295
 


--------------------------------------------------------------------------------------------------------


 use serial FFT for orbitals x direction half grid
 k-point   1 :   0.0000 0.0000 0.0000  plane waves:    2349

 maximum and minimum number of plane-waves per node :      2349     2349

 maximum number of plane-waves:      2349
 maximum index in each direction: 
   IXMAX=   10   IYMAX=   10   IZMAX=   10
   IXMIN=    0   IYMIN=  -10   IZMIN=  -10


 serial   3D FFT for wavefunctions
 parallel 3D FFT for charge:
    minimum data exchange during FFTs selected (reduces bandwidth)


 FFT grid for exact exchange (Hartree Fock) 
  NGX = 32; NGY = 32; NGZ = 32

 use serial FFT for orbitals x direction half grid
 
 Radii for the augmentation spheres in the non-local exchange
 for species   1 augmentation radius   1.299 (default was   1.039)
       energy cutoff for augmentation   1600.0
 for species   2 augmentation radius   0.735 (default was   0.588)
       energy cutoff for augmentation   1600.0
 Maximum index for augmentation-charges in exchange         1189
  SETUP_FOCK is finished

 total amount of memory used by VASP MPI-rank0    39254. kBytes
=======================================================================

   base      :      30000. kBytes
   nonl-proj :        564. kBytes
   fftplans  :        785. kBytes
   grid      :       3795. kBytes
   one-center:          8. kBytes
   HF        :         67. kBytes
   nonlr-proj:        310. kBytes
   wavefun   :       3725. kBytes
 
     INWAV:  cpu time      0.5527: real time      0.5562
 charge density for first step will be calculated from the start-wavefunctions


--------------------------------------------------------------------------------------------------------


 Maximum index for augmentation-charges          593 (set IRDMAX)


--------------------------------------------------------------------------------------------------------


 initial charge from wavefunction
    FEWALD:  cpu time      0.0003: real time      0.0003


--------------------------------------- Iteration      1(   1)  ---------------------------------------


    POTLOK:  cpu time      0.0092: real time      0.0094
    SETDIJ:  cpu time      0.0031: real time      0.0032
    EDDIAG:  cpu time     19.9076: real time     20.0598
       DOS:  cpu time      0.0008: real time      0.0008
    --------------------------------------------
      LOOP:  cpu time     19.9207: real time     20.0732

 eigenvalue-minimisations  :     0
 total energy-change (2. order) :-0.7886615E+01  ( 0.0000000E+00)
 number of electron       2.0000000 magnetization 
 augmentation part        0.0147137 magnetization 

 Free energy of the ion-electron system (eV)
  ---------------------------------------------------
  alpha Z        PSCENC =         0.34914062
  Ewald energy   TEWEN  =        -3.64526497
  -Hartree energ DENC   =       -12.45724953
  -exchange      EXHF   =        12.66371482
  -V(xc)+E(xc)   XCENC  =         0.00000000
  PAW double counting   =        16.45045255      -16.46246518
  entropy T*S    EENTRO =         0.00000000
  eigenvalues    EBANDS =       -18.01321002
  atomic energy  EATOM  =        13.22826673
  Solvation  Ediel_sol  =         0.00000000
  ---------------------------------------------------
  free energy    TOTEN  =        -7.88661498 eV

  energy without entropy =       -7.88661498  energy(sigma->0) =       -7.88661498
  exchange ACFDT corr.  =         0.00000000  see jH, gK, PRB 81, 115126


--------------------------------------------------------------------------------------------------------




 average (electrostatic) potential at core
  the test charge radii are     1.0393  0.5883
  (the norm of the test charge is              1.0000)
       1   2.0828       2 -18.7829
 
 
 
 E-fermi :  -8.0857     XC(G=0):   0.0000     alpha+bet : -0.5273

 Fermi energy:        -8.0857408328

 k-point     1 :       0.0000    0.0000    0.0000
  band No.  band energies     occupation 
      1      -9.0066      2.00000
      2       0.4054      0.00000
      3       3.0278      0.00000
      4       3.0278      0.00000
      5       3.1327      0.00000
      6       3.6557      0.00000
      7       3.6967      0.00000
      8       5.2944      0.00000
      9       6.4798      0.00000
     10       6.4798      0.00000
     11       7.1124      0.00000
     12       7.2702      0.00000
     13       7.2972      0.00000
     14       7.2972      0.00000
     15       7.5391      0.00000
     16       7.5446      0.00000
     17       7.6429      0.00000
     18       7.6429      0.00000
     19       7.6437      0.00000
     20      10.1610      0.00000
     21      10.7807      0.00000
     22      10.7807      0.00000
     23      11.0567      0.00000
     24      11.0567      0.00000
     25      11.1489      0.00000
     26      11.3203      0.00000
     27      11.4956      0.00000
     28      13.2564      0.00000
     29      14.0905      0.00000
     30      14.0905      0.00000
     31      14.2334      0.00000
     32      14.5315      0.00000
     33      15.2374      0.00000
     34      16.6719      0.00000
     35      16.9677      0.00000
     36      17.0681      0.00000
     37      17.0681      0.00000
     38      18.0709      0.00000
     39      18.1388      0.00000
     40      18.2146      0.00000
     41      18.2146      0.00000
     42      18.3423      0.00000
     43      18.4111      0.00000
     44      18.4111      0.00000
     45      18.4997      0.00000
     46      18.6140      0.00000
     47      18.6140      0.00000
     48      18.6705      0.00000
     49      18.7638      0.00000
     50      18.7638      0.00000
     51      18.7773      0.00000
     52      18.8099      0.00000
     53      18.9172      0.00000
     54      18.9632      0.00000
     55      18.9632      0.00000
     56      19.0653      0.00000
     57      19.6361      0.00000
     58      21.1706      0.00000
     59      21.4237      0.00000
     60      21.4237      0.00000
     61      21.7519      0.00000
     62      21.7889      0.00000
     63      21.7889      0.00000
     64      21.9068      0.00000
     65      22.1339      0.00000
     66      22.3344      0.00000
     67      22.3388      0.00000
     68      22.4201      0.00000
     69      22.4201      0.00000
     70      22.4362      0.00000
     71      22.4362      0.00000
     72      22.4900      0.00000
     73      22.5119      0.00000
     74      22.5667      0.00000
     75      22.5667      0.00000
     76      22.6151      0.00000
     77      22.6151      0.00000
     78      22.6237      0.00000
     79      22.6315      0.00000
     80      22.6953      0.00000
     81      23.6952      0.00000
     82      28.2756      0.00000
     83      28.8676      0.00000
     84      28.8676      0.00000
     85      29.1366      0.00000
     86      29.4524      0.00000
     87      29.5624      0.00000
     88      29.5624      0.00000
     89      29.6324      0.00000
     90      29.6324      0.00000
     91      29.7474      0.00000
     92      29.8095      0.00000
     93      30.3873      0.00000
     94      31.6633      0.00000
     95      32.0115      0.00000
     96      32.0115      0.00000
     97      32.3164      0.00000
     98      32.9149      0.00000
     99      32.9149      0.00000
    100      32.9367      0.00000
    101      32.9749      0.00000
    102      33.0267      0.00000
    103      33.1381      0.00000
    104      33.1381      0.00000
    105      33.2037      0.00000
    106      33.3167      0.00000
    107      33.5702      0.00000
    108      33.5702      0.00000
    109      33.5930      0.00000
    110      33.5932      0.00000
    111      33.6262      0.00000
    112      33.6537      0.00000
    113      33.6537      0.00000
    114      33.7214      0.00000
    115      33.7242      0.00000
    116      33.7295      0.00000
    117      33.7443      0.00000
    118      33.7443      0.00000
    119      33.7832      0.00000
    120      33.7946      0.00000
    121      33.7946      0.00000
    122      33.8639      0.00000
    123      34.6712      0.00000
    124      35.8484      0.00000
    125      36.1423      0.00000
    126      36.1423      0.00000
    127      36.3196      0.00000
    128      36.4601      0.00000
    129      36.9883      0.00000
    130      37.0441      0.00000
    131      37.0996      0.00000
    132      37.0996      0.00000
    133      37.1702      0.00000
    134      37.1957      0.00000
    135      37.1957      0.00000
    136      37.2458      0.00000
    137      37.2715      0.00000
    138      37.2715      0.00000
    139      37.2999      0.00000
    140      37.2999      0.00000
    141      37.4226      0.00000
    142      37.4785      0.00000
    143      37.4790      0.00000
    144      37.5387      0.00000
    145      37.5387      0.00000
    146      37.6168      0.00000
    147      38.6360      0.00000
    148      40.0970      0.00000
    149      40.3791      0.00000
    150      40.3791      0.00000
    151      40.3883      0.00000
    152      40.5976      0.00000
    153      40.7774      0.00000
    154      40.7868      0.00000
    155      40.7868      0.00000
    156      40.8673      0.00000
    157      40.9267      0.00000
    158      40.9267      0.00000
    159      40.9771      0.00000
    160      40.9771      0.00000
    161      41.0126      0.00000
    162      41.0126      0.00000
    163      41.0322      0.00000
    164      41.0429      0.00000
    165      41.1108      0.00000
    166      41.1203      0.00000
    167      41.1447      0.00000
    168      41.2081      0.00000
    169      41.2081      0.00000
    170      41.2378      0.00000
    171      42.5707      0.00000
    172      44.3083      0.00000
    173      44.3146      0.00000
    174      44.3146      0.00000
    175      44.5708      0.00000
    176      44.5708      0.00000
    177      44.5791      0.00000
    178      44.6968      0.00000
    179      45.0750      0.00000
    180      46.8248      0.00000
    181      47.1665      0.00000
    182      47.1665      0.00000
    183      47.7372      0.00000
    184      47.7542      0.00000
    185      47.8835      0.00000
    186      47.8835      0.00000
    187      48.0334      0.00000
    188      48.0336      0.00000
    189      48.0336      0.00000
    190      48.1805      0.00000
    191      48.2171      0.00000
    192      48.4434      0.00000
    193      48.4629      0.00000
    194      48.4629      0.00000
    195      48.4682      0.00000
    196      48.5161      0.00000
    197      48.5794      0.00000
    198      48.5794      0.00000
    199      48.6484      0.00000
    200      48.6484      0.00000
    201      48.6860      0.00000
    202      48.7137      0.00000
    203      49.6137      0.00000
    204      50.8041      0.00000
    205      50.8869      0.00000
    206      50.8869      0.00000
    207      51.0647      0.00000
    208      51.4454      0.00000
    209      51.4454      0.00000
    210      51.4816      0.00000
    211      51.6869      0.00000
    212      51.7331      0.00000
    213      51.8355      0.00000
    214      51.8512      0.00000
    215      51.8512      0.00000
    216      51.9221      0.00000
    217      51.9506      0.00000
    218      51.9506      0.00000
    219      52.0105      0.00000
    220      52.0172      0.00000
    221      52.0172      0.00000
    222      52.0188      0.00000
    223      52.0188      0.00000
    224      52.0662      0.00000
    225      52.0967      0.00000
    226      52.1535      0.00000
    227      52.1853      0.00000
    228      52.2954      0.00000
    229      52.3120      0.00000
    230      52.3120      0.00000
    231      52.3398      0.00000
    232      52.3398      0.00000
    233      52.3531      0.00000
    234      52.3663      0.00000
    235      52.3805      0.00000
    236      52.3988      0.00000
    237      52.3988      0.00000
    238      52.4244      0.00000
    239      52.4629      0.00000
    240      52.4629      0.00000
    241      52.4728      0.00000
    242      52.5040      0.00000
    243      52.5316      0.00000
    244      52.5708      0.00000
    245      52.5737      0.00000
    246      52.5737      0.00000
    247      52.5922      0.00000
    248      52.6148      0.00000
    249      52.6148      0.00000
    250      52.6335      0.00000
    251      54.9803      0.00000
    252      58.7772      0.00000
    253      58.7772      0.00000
    254      58.8733      0.00000
    255      59.0689      0.00000
    256      59.1699      0.00000
    257      59.8572      0.00000
    258      61.3653      0.00000
    259      61.4470      0.00000
    260      61.4470      0.00000
    261      61.5968      0.00000
    262      62.3987      0.00000
    263      62.5536      0.00000
    264      62.5742      0.00000
    265      62.5841      0.00000
    266      62.5841      0.00000
    267      62.7382      0.00000
    268      62.8285      0.00000
    269      62.8285      0.00000
    270      62.9291      0.00000
    271      63.1910      0.00000
    272      63.1930      0.00000
    273      63.1930      0.00000
    274      63.2314      0.00000
    275      63.2343      0.00000
    276      63.2766      0.00000
    277      63.2766      0.00000
    278      63.3354      0.00000
    279      63.3883      0.00000
    280      63.3883      0.00000
    281      63.3957      0.00000
    282      63.3957      0.00000
    283      63.4168      0.00000
    284      63.4864      0.00000
    285      63.4864      0.00000
    286      63.4924      0.00000
    287      63.5197      0.00000
    288      63.5272      0.00000
    289      63.5272      0.00000
    290      63.5308      0.00000
    291      63.5401      0.00000
    292      63.5460      0.00000
    293      63.5503      0.00000
    294      63.5503      0.00000
    295      63.5872      0.00000
    296      63.5907      0.00000
    297      63.5915      0.00000
    298      63.6125      0.00000
    299      63.6125      0.00000
    300      63.6321      0.00000
    301      63.6885      0.00000
    302      63.7105      0.00000
    303      63.7105      0.00000
    304      63.7179      0.00000
    305      65.1005      0.00000
    306      66.1458      0.00000
    307      66.2026      0.00000
    308      66.2026      0.00000
    309      66.4257      0.00000
    310      66.6565      0.00000
    311      66.6769      0.00000
    312      66.7376      0.00000
    313      66.8065      0.00000
    314      66.8065      0.00000
    315      66.9236      0.00000
    316      66.9236      0.00000
    317      66.9716      0.00000
    318      66.9716      0.00000
    319      66.9777      0.00000
    320      67.0115      0.00000
    321      67.0563      0.00000
    322      67.0591      0.00000
    323      67.0591      0.00000
    324      67.0715      0.00000
    325      67.0848      0.00000
    326      67.1204      0.00000
    327      67.1247      0.00000
    328      67.1399      0.00000
    329      67.1399      0.00000
    330      67.1424      0.00000
    331      67.1534      0.00000
    332      67.1534      0.00000
    333      67.1596      0.00000
    334      67.1596      0.00000
    335      67.2372      0.00000
    336      67.2401      0.00000
    337      67.3043      0.00000
    338      67.3249      0.00000
    339      67.3249      0.00000
    340      67.3385      0.00000
    341      69.1099      0.00000
    342      70.0077      0.00000
    343      70.2593      0.00000
    344      70.2593      0.00000
    345      70.4663      0.00000
    346      70.4663      0.00000
    347      70.6040      0.00000
    348      70.6368      0.00000
    349      70.6949      0.00000
    350      70.7244      0.00000
    351      70.7521      0.00000
    352      70.7521      0.00000
    353      70.7700      0.00000
    354      70.8672      0.00000
    355      70.8712      0.00000
    356      70.8774      0.00000
    357      70.8774      0.00000
    358      70.9081      0.00000
    359      70.9081      0.00000
    360      70.9141      0.00000
    361      70.9141      0.00000
    362      70.9361      0.00000
    363      70.9374      0.00000
    364      70.9481      0.00000
    365      72.4135      0.00000
    366      73.6145      0.00000
    367      73.8193      0.00000
    368      73.8193      0.00000
    369      73.9363      0.00000
    370      74.1937      0.00000
    371      74.2145      0.00000
    372      74.2298      0.00000
    373      74.3550      0.00000
    374      74.3550      0.00000
    375      74.3946      0.00000
    376      74.4047      0.00000
    377      74.4047      0.00000
    378      74.4428      0.00000
    379      74.4428      0.00000
    380      74.4646      0.00000
    381      74.4667      0.00000
    382      74.5149      0.00000
    383      74.5149      0.00000
    384      74.5390      0.00000
    385      74.5390      0.00000
    386      74.5796      0.00000
    387      74.6143      0.00000
    388      74.6233      0.00000
    389      75.9300      0.00000
    390      77.0028      0.00000
    391      77.1826      0.00000
    392      77.1826      0.00000
    393      77.3204      0.00000
    394      77.7695      0.00000
    395      77.8024      0.00000
    396      77.8024      0.00000
    397      77.8041      0.00000
    398      77.9500      0.00000
    399      78.0117      0.00000
    400      78.0117      0.00000
    401      78.0704      0.00000
    402      78.0711      0.00000
    403      78.0711      0.00000
    404      78.0931      0.00000
    405      78.0931      0.00000
    406      78.1252      0.00000
    407      78.1583      0.00000
    408      78.1837      0.00000
    409      78.1837      0.00000
    410      78.1844      0.00000
    411      78.2047      0.00000
    412      78.2488      0.00000
    413      78.2594      0.00000
    414      78.3630      0.00000
    415      78.3630      0.00000
    416      78.3999      0.00000
    417      78.4086      0.00000
    418      78.4616      0.00000
    419      78.4668      0.00000
    420      78.4668      0.00000
    421      78.4682      0.00000
    422      78.4682      0.00000
    423      78.4709      0.00000
    424      78.4981      0.00000
    425      78.4994      0.00000
    426      78.5119      0.00000
    427      78.5119      0.00000
    428      78.5277      0.00000
    429      78.5706      0.00000
    430      78.5706      0.00000
    431      78.5805      0.00000
    432      78.5853      0.00000
    433      78.5869      0.00000
    434      78.6553      0.00000
    435      78.6553      0.00000
    436      78.6792      0.00000
    437      80.4028      0.00000
    438      81.0585      0.00000
    439      81.2073      0.00000
    440      81.2073      0.00000
    441      81.3487      0.00000
    442      81.3487      0.00000
    443      81.3945      0.00000
    444      81.6359      0.00000
    445      82.0518      0.00000
    446      82.1514      0.00000
    447      82.1514      0.00000
    448      82.1525      0.00000
    449      82.1674      0.00000
    450      82.1674      0.00000
    451      82.1711      0.00000
    452      82.1774      0.00000
    453      82.1789      0.00000
    454      82.2005      0.00000
    455      82.2005      0.00000
    456      82.2034      0.00000
    457      82.2383      0.00000
    458      82.2592      0.00000
    459      82.2592      0.00000
    460      82.2832      0.00000
    461      84.6924      0.00000
    462      88.4161      0.00000
    463      88.5916      0.00000
    464      88.5916      0.00000
    465      88.8234      0.00000
    466      89.2258      0.00000
    467      89.2705      0.00000
    468      89.2705      0.00000
    469      89.3236      0.00000
    470      89.3661      0.00000
    471      89.3880      0.00000
    472      89.3880      0.00000
    473      89.4242      0.00000
    474      89.4242      0.00000
    475      89.4698      0.00000
    476      89.4782      0.00000
    477      89.5117      0.00000
    478      89.5131      0.00000
    479      89.5131      0.00000
    480      89.5168      0.00000
    481      89.5194      0.00000
    482      89.5194      0.00000
    483      89.5199      0.00000
    484      89.5271      0.00000
    485      90.2109      0.00000
    486      91.5197      0.00000
    487      91.5197      0.00000
    488      91.8443      0.00000
    489      92.4217      0.00000
    490      92.4801      0.00000
    491      92.4986      0.00000
    492      92.6766      0.00000
    493      92.6766      0.00000
    494      92.7550      0.00000
    495      92.8655      0.00000
    496      92.8876      0.00000
    497      92.8876      0.00000
    498      92.9149      0.00000
    499      92.9377      0.00000
    500      92.9594      0.00000
    501      92.9594      0.00000
    502      92.9700      0.00000
    503      93.2308      0.00000
    504      93.2329      0.00000
    505      93.2356      0.00000
    506      93.2356      0.00000
    507      93.2931      0.00000
    508      93.3593      0.00000
    509      93.3896      0.00000
    510      93.3896      0.00000
    511      93.4017      0.00000
    512      93.4017      0.00000
    513      93.4337      0.00000
    514      93.4366      0.00000
    515      94.3053      0.00000
    516      95.1068      0.00000
    517      95.4300      0.00000
    518      95.4300      0.00000
    519      95.8374      0.00000
    520      95.9453      0.00000
    521      95.9674      0.00000
    522      96.3328      0.00000
    523      96.3328      0.00000
    524      96.4127      0.00000
    525      96.4497      0.00000
    526      96.5260      0.00000
    527      96.5260      0.00000
    528      96.6046      0.00000
    529      96.6414      0.00000
    530      96.6414      0.00000
    531      96.6651      0.00000
    532      96.6889      0.00000
    533      96.7049      0.00000
    534      96.7631      0.00000
    535      96.7631      0.00000
    536      96.7950      0.00000
    537      96.7998      0.00000
    538      96.8001      0.00000
    539      96.8001      0.00000
    540      96.8077      0.00000
    541      96.8163      0.00000
    542      96.8163      0.00000
    543      96.8229      0.00000
    544      96.8462      0.00000
    545      96.8481      0.00000
    546      96.8481      0.00000
    547      96.8626      0.00000
    548      96.9088      0.00000
    549      96.9497      0.00000
    550      96.9516      0.00000
    551      96.9703      0.00000
    552      96.9703      0.00000
    553      96.9779      0.00000
    554      96.9779      0.00000
    555      96.9934      0.00000
    556      96.9934      0.00000
    557      97.0108      0.00000
    558      97.0585      0.00000
    559      97.0608      0.00000
    560      97.0700      0.00000
    561      97.0700      0.00000
    562      97.0745      0.00000
    563      97.0954      0.00000
    564      97.0977      0.00000
    565      97.0977      0.00000
    566      97.1002      0.00000
    567      97.1002      0.00000
    568      97.1151      0.00000
    569      97.1755      0.00000
    570      97.1831      0.00000
    571      97.2154      0.00000
    572      97.2162      0.00000
    573      97.2174      0.00000
    574      97.2174      0.00000
    575      97.2223      0.00000
    576      97.2234      0.00000
    577      97.2471      0.00000
    578      97.2471      0.00000
    579      97.2500      0.00000
    580      97.2500      0.00000
    581      97.2643      0.00000
    582      97.2654      0.00000
    583      97.3019      0.00000
    584      97.3085      0.00000
    585      97.3085      0.00000
    586      97.3109      0.00000
    587      99.2240      0.00000
    588     100.0026      0.00000
    589     100.1905      0.00000
    590     100.1905      0.00000
    591     100.2708      0.00000
    592     100.3490      0.00000
    593     100.4174      0.00000
    594     100.5051      0.00000
    595     100.5051      0.00000
    596     100.5497      0.00000
    597     100.5539      0.00000
    598     100.5809      0.00000
    599     100.5809      0.00000
    600     100.6192      0.00000
    601     100.6192      0.00000
    602     100.6612      0.00000
    603     100.6768      0.00000
    604     100.6780      0.00000
    605     100.6855      0.00000
    606     100.7015      0.00000
    607     100.7015      0.00000
    608     100.7055      0.00000
    609     100.7157      0.00000
    610     100.7157      0.00000
    611     100.7238      0.00000
    612     100.7238      0.00000
    613     100.8127      0.00000
    614     100.8146      0.00000
    615     100.9049      0.00000
    616     100.9058      0.00000
    617     100.9058      0.00000
    618     100.9104      0.00000
    619     103.0569      0.00000
    620     106.2316      0.00000
    621     106.2487      0.00000
    622     106.2487      0.00000
    623     106.7736      0.00000
    624     107.2649      0.00000
    625     107.2748      0.00000
    626     107.2748      0.00000
    627     107.4404      0.00000
    628     107.6010      0.00000
    629     107.6732      0.00000
    630     107.6732      0.00000
    631     107.7838      0.00000
    632     107.8332      0.00000
    633     107.8575      0.00000
    634     107.8575      0.00000
    635     107.8578      0.00000
    636     107.8726      0.00000
    637     107.8726      0.00000
    638     107.8864      0.00000
    639     107.8907      0.00000
    640     107.9004      0.00000
    641     107.9006      0.00000
    642     107.9337      0.00000
    643     107.9337      0.00000
    644     107.9475      0.00000
    645     107.9665      0.00000
    646     107.9691      0.00000
    647     107.9691      0.00000
    648     107.9887      0.00000
    649     107.9899      0.00000
    650     107.9899      0.00000
    651     107.9899      0.00000
    652     108.0265      0.00000
    653     108.0491      0.00000
    654     108.0778      0.00000
    655     108.0778      0.00000
    656     108.0957      0.00000
    657     108.0957      0.00000
    658     108.1180      0.00000
    659     108.1465      0.00000
    660     108.1465      0.00000
    661     108.1467      0.00000
    662     108.1531      0.00000
    663     108.1531      0.00000
    664     108.1564      0.00000
    665     108.1784      0.00000
    666     108.1979      0.00000
    667     108.3053      0.00000
    668     108.3053      0.00000
    669     108.3061      0.00000
    670     108.3114      0.00000
    671     108.3136      0.00000
    672     108.3136      0.00000
    673     108.3153      0.00000
    674     108.3173      0.00000
    675     108.3264      0.00000
    676     108.3540      0.00000
    677     108.3540      0.00000
    678     108.3603      0.00000
    679     108.3666      0.00000
    680     108.3813      0.00000
    681     108.3813      0.00000
    682     108.3966      0.00000
    683     108.5128      0.00000
    684     108.5227      0.00000
    685     108.5248      0.00000
    686     108.5248      0.00000
    687     108.5314      0.00000
    688     108.5314      0.00000
    689     108.5347      0.00000
    690     108.5394      0.00000
    691     110.0123      0.00000
    692     110.8172      0.00000
    693     111.0803      0.00000
    694     111.0803      0.00000
    695     111.3130      0.00000
    696     111.3584      0.00000
    697     111.5044      0.00000
    698     111.5044      0.00000
    699     111.5540      0.00000
    700     111.6620      0.00000
    701     111.6934      0.00000
    702     111.6934      0.00000
    703     111.6979      0.00000
    704     111.7032      0.00000
    705     111.7032      0.00000
    706     111.7206      0.00000
    707     111.7424      0.00000
    708     111.7424      0.00000
    709     111.7738      0.00000
    710     111.7738      0.00000
    711     111.7765      0.00000
    712     111.7776      0.00000
    713     111.8028      0.00000
    714     111.8420      0.00000
    715     111.8484      0.00000
    716     111.9353      0.00000
    717     111.9353      0.00000
    718     111.9783      0.00000
    719     111.9800      0.00000
    720     112.0024      0.00000
    721     112.0430      0.00000
    722     112.0430      0.00000
    723     112.0431      0.00000
    724     112.0431      0.00000
    725     112.0735      0.00000
    726     112.0735      0.00000
    727     112.0867      0.00000
    728     112.1076      0.00000
    729     112.1076      0.00000
    730     112.1267      0.00000
    731     112.1357      0.00000
    732     112.1449      0.00000
    733     112.1449      0.00000
    734     112.1508      0.00000
    735     112.1857      0.00000
    736     112.2193      0.00000
    737     112.2193      0.00000
    738     112.2353      0.00000
    739     113.8964      0.00000
    740     118.6720      0.00000
    741     118.6720      0.00000
    742     118.8071      0.00000
    743     118.9884      0.00000
    744     119.1178      0.00000
    745     119.1576      0.00000
    746     119.1576      0.00000
    747     119.2338      0.00000
    748     119.2587      0.00000
    749     119.2587      0.00000
    750     119.3243      0.00000
    751     119.3340      0.00000
    752     121.6957      0.00000
    753     121.8450      0.00000
    754     121.8450      0.00000
    755     122.2908      0.00000
    756     122.6405      0.00000
    757     122.6405      0.00000
    758     122.7008      0.00000
    759     122.7643      0.00000
    760     122.8171      0.00000
    761     122.8262      0.00000
    762     122.8262      0.00000
    763     122.9306      0.00000
    764     122.9768      0.00000
    765     122.9781      0.00000
    766     122.9781      0.00000
    767     123.0087      0.00000
    768     123.0123      0.00000
    769     123.0316      0.00000
    770     123.0337      0.00000
    771     123.0412      0.00000
    772     123.0425      0.00000
    773     123.0425      0.00000
    774     123.0442      0.00000
    775     123.0450      0.00000
    776     123.0493      0.00000
    777     123.0493      0.00000
    778     123.0564      0.00000
    779     123.0564      0.00000
    780     123.0680      0.00000
    781     123.0680      0.00000
    782     123.0773      0.00000
    783     123.0973      0.00000
    784     123.0973      0.00000
    785     123.1018      0.00000
    786     123.1050      0.00000
    787     123.1408      0.00000
    788     123.1424      0.00000
    789     123.1424      0.00000
    790     123.1548      0.00000
    791     123.1597      0.00000
    792     123.1597      0.00000
    793     123.1611      0.00000
    794     123.1613      0.00000
    795     123.2011      0.00000
    796     123.2151      0.00000
    797     123.2151      0.00000
    798     123.2273      0.00000
    799     123.5464      0.00000
    800     125.5940      0.00000
    801     125.6332      0.00000
    802     125.6332      0.00000
    803     126.1051      0.00000
    804     126.1334      0.00000
    805     126.1334      0.00000
    806     126.1485      0.00000
    807     126.3892      0.00000
    808     126.4473      0.00000
    809     126.4877      0.00000
    810     126.5077      0.00000
    811     126.5077      0.00000
    812     126.5480      0.00000
    813     126.5509      0.00000
    814     126.6320      0.00000
    815     126.6320      0.00000
    816     126.6347      0.00000
    817     126.6523      0.00000
    818     126.6676      0.00000
    819     126.6676      0.00000
    820     126.6826      0.00000
    821     126.7102      0.00000
    822     126.7188      0.00000
    823     126.7188      0.00000
    824     126.7380      0.00000
    825     126.7380      0.00000
    826     126.7414      0.00000
    827     126.7839      0.00000
    828     126.7935      0.00000
    829     126.7935      0.00000
    830     126.8521      0.00000
    831     126.9367      0.00000
    832     126.9403      0.00000
    833     126.9403      0.00000
    834     126.9406      0.00000
    835     126.9428      0.00000
    836     126.9434      0.00000
    837     126.9434      0.00000
    838     126.9471      0.00000
    839     126.9651      0.00000
    840     127.0000      0.00000
    841     127.0170      0.00000
    842     127.0209      0.00000
    843     127.0209      0.00000
    844     127.0289      0.00000
    845     127.0291      0.00000
    846     127.0291      0.00000
    847     127.0432      0.00000
    848     129.6185      0.00000
    849     129.8443      0.00000
    850     129.8443      0.00000
    851     129.9431      0.00000
    852     130.1856      0.00000
    853     130.2583      0.00000
    854     130.2583      0.00000
    855     130.3222      0.00000
    856     130.3222      0.00000
    857     130.3314      0.00000
    858     130.3450      0.00000
    859     130.3912      0.00000
    860     130.3912      0.00000
    861     130.4209      0.00000
    862     130.4254      0.00000
    863     130.4660      0.00000
    864     130.5158      0.00000
    865     130.5255      0.00000
    866     130.5276      0.00000
    867     130.5276      0.00000
    868     130.5359      0.00000
    869     130.5394      0.00000
    870     130.5394      0.00000
    871     130.5446      0.00000
    872     130.5586      0.00000
    873     130.5769      0.00000
    874     130.5769      0.00000
    875     130.5816      0.00000
    876     130.5841      0.00000
    877     130.5931      0.00000
    878     130.5976      0.00000
    879     130.5997      0.00000
    880     130.5997      0.00000
    881     130.6026      0.00000
    882     130.6026      0.00000
    883     130.6040      0.00000
    884     130.6041      0.00000
    885     130.6241      0.00000
    886     130.6241      0.00000
    887     130.6279      0.00000
    888     130.6279      0.00000
    889     130.6430      0.00000
    890     130.6443      0.00000
    891     130.6449      0.00000
    892     130.7219      0.00000
    893     130.7219      0.00000
    894     130.7240      0.00000
    895     130.7288      0.00000
    896     133.5455      0.00000
    897     133.5455      0.00000
    898     133.6515      0.00000
    899     133.7454      0.00000
    900     133.8053      0.00000
    901     133.9801      0.00000
    902     134.0308      0.00000
    903     134.0911      0.00000
    904     134.0911      0.00000
    905     134.0979      0.00000
    906     134.1322      0.00000
    907     134.1322      0.00000
    908     134.1486      0.00000
    909     134.1641      0.00000
    910     134.1641      0.00000
    911     134.1956      0.00000
    912     134.2284      0.00000
    913     134.2346      0.00000
    914     134.2559      0.00000
    915     134.2559      0.00000
    916     134.2659      0.00000
    917     134.2853      0.00000
    918     134.2861      0.00000
    919     134.2880      0.00000
    920     134.2880      0.00000
    921     134.2905      0.00000
    922     134.2905      0.00000
    923     134.2910      0.00000
    924     134.3038      0.00000
    925     134.3467      0.00000
    926     136.9094      0.00000
    927     137.0467      0.00000
    928     137.0467      0.00000
    929     137.0668      0.00000
    930     137.2155      0.00000
    931     137.3448      0.00000
    932     137.8490      0.00000
    933     137.8742      0.00000
    934     137.8742      0.00000
    935     137.8802      0.00000
    936     137.9198      0.00000
    937     137.9513      0.00000
    938     137.9513      0.00000
    939     137.9800      0.00000
    940     138.0429      0.00000
    941     138.0429      0.00000
    942     138.0502      0.00000
    943     138.0502      0.00000
    944     138.1997      0.00000
    945     138.1998      0.00000
    946     138.2295      0.00000
    947     138.2855      0.00000
    948     138.2855      0.00000
    949     138.3136      0.00000
    950     140.4330      0.00000
    951     140.4942      0.00000
    952     140.4942      0.00000
    953     140.6949      0.00000
    954     141.2137      0.00000
    955     141.2646      0.00000
    956     141.3144      0.00000
    957     141.3161      0.00000
    958     141.3167      0.00000
    959     141.3167      0.00000
    960     141.3826      0.00000
    961     141.3826      0.00000
    962     141.4668      0.00000
    963     141.4796      0.00000
    964     141.4881      0.00000
    965     141.4980      0.00000
    966     141.4980      0.00000
    967     141.5131      0.00000
    968     141.5166      0.00000
    969     141.5166      0.00000
    970     141.5359      0.00000
    971     141.5406      0.00000
    972     141.5406      0.00000
    973     141.5569      0.00000
    974     141.5849      0.00000
    975     141.5994      0.00000
    976     141.6165      0.00000
    977     141.6165      0.00000
    978     141.6366      0.00000
    979     141.6543      0.00000
    980     141.6616      0.00000
    981     141.6819      0.00000
    982     141.7207      0.00000
    983     141.7207      0.00000
    984     141.7410      0.00000
    985     141.7518      0.00000
    986     141.7518      0.00000
    987     141.7550      0.00000
    988     141.7550      0.00000
    989     141.7577      0.00000
    990     141.7626      0.00000
    991     141.7626      0.00000
    992     141.8516      0.00000
    993     141.8555      0.00000
    994     141.8644      0.00000
    995     141.8649      0.00000
    996     141.8649      0.00000
    997     141.8656      0.00000
    998     141.8656      0.00000
    999     141.8672      0.00000
   1000     141.8718      0.00000
   1001     141.8720      0.00000
   1002     141.8728      0.00000
   1003     141.8786      0.00000
   1004     141.8876      0.00000
   1005     141.8876      0.00000
   1006     141.9039      0.00000
   1007     141.9064      0.00000
   1008     141.9064      0.00000
   1009     141.9255      0.00000
   1010     141.9483      0.00000
   1011     141.9516      0.00000
   1012     141.9516      0.00000
   1013     141.9618      0.00000
   1014     141.9625      0.00000
   1015     141.9756      0.00000
   1016     141.9756      0.00000
   1017     141.9801      0.00000
   1018     141.9844      0.00000
   1019     141.9852      0.00000
   1020     141.9852      0.00000
   1021     141.9924      0.00000
   1022     148.3086      0.00000
   1023     148.3867      0.00000
   1024     148.3867      0.00000
   1025     148.5281      0.00000
   1026     148.8081      0.00000
   1027     148.8988      0.00000
   1028     148.9255      0.00000
   1029     148.9651      0.00000
   1030     148.9651      0.00000
   1031     149.0093      0.00000
   1032     149.0119      0.00000
   1033     149.0340      0.00000
   1034     149.0340      0.00000
   1035     149.0454      0.00000
   1036     149.1093      0.00000
   1037     149.1093      0.00000
   1038     149.1812      0.00000
   1039     149.1812      0.00000
   1040     149.1907      0.00000
   1041     149.1907      0.00000
   1042     149.1992      0.00000
   1043     149.2027      0.00000
   1044     149.2226      0.00000
   1045     149.2264      0.00000
   1046     151.1723      0.00000
   1047     151.1723      0.00000
   1048     151.1762      0.00000
   1049     151.5201      0.00000
   1050     151.9270      0.00000
   1051     152.1632      0.00000
   1052     152.2549      0.00000
   1053     152.2549      0.00000
   1054     152.2766      0.00000
   1055     152.3458      0.00000
   1056     152.3458      0.00000
   1057     152.4096      0.00000
   1058     152.4102      0.00000
   1059     152.4880      0.00000
   1060     152.4880      0.00000
   1061     152.4942      0.00000
   1062     152.5115      0.00000
   1063     152.5761      0.00000
   1064     152.5761      0.00000
   1065     152.5864      0.00000
   1066     152.5916      0.00000
   1067     152.6246      0.00000
   1068     152.6297      0.00000
   1069     152.6333      0.00000
   1070     152.6333      0.00000
   1071     152.6508      0.00000
   1072     152.6737      0.00000
   1073     152.6908      0.00000
   1074     152.6908      0.00000
   1075     152.7233      0.00000
   1076     152.7509      0.00000
   1077     152.7509      0.00000
   1078     152.7509      0.00000
   1079     152.7744      0.00000
   1080     152.7744      0.00000
   1081     152.8063      0.00000
   1082     152.8064      0.00000
   1083     152.8064      0.00000
   1084     152.8157      0.00000
   1085     152.8186      0.00000
   1086     152.8213      0.00000
   1087     152.8213      0.00000
   1088     152.8765      0.00000
   1089     152.8830      0.00000
   1090     152.8886      0.00000
   1091     152.8929      0.00000
   1092     152.9051      0.00000
   1093     152.9051      0.00000
   1094     152.9235      0.00000
   1095     152.9473      0.00000
   1096     152.9473      0.00000
   1097     152.9799      0.00000
   1098     152.9938      0.00000
   1099     152.9970      0.00000
   1100     153.0227      0.00000
   1101     153.0328      0.00000
   1102     153.0328      0.00000
   1103     153.0455      0.00000
   1104     153.0459      0.00000
   1105     153.0494      0.00000
   1106     153.0494      0.00000
   1107     153.0553      0.00000
   1108     153.0600      0.00000
   1109     153.0600      0.00000
   1110     153.0620      0.00000
   1111     153.0690      0.00000
   1112     153.0690      0.00000
   1113     153.0817      0.00000
   1114     153.0817      0.00000
   1115     153.0962      0.00000
   1116     153.0983      0.00000
   1117     153.1054      0.00000
   1118     153.1055      0.00000
   1119     153.1174      0.00000
   1120     153.1174      0.00000
   1121     153.1246      0.00000
   1122     153.1349      0.00000
   1123     153.1400      0.00000
   1124     153.1487      0.00000
   1125     153.1590      0.00000
   1126     153.1590      0.00000
   1127     153.1646      0.00000
   1128     153.1646      0.00000
   1129     153.1765      0.00000
   1130     153.1765      0.00000
   1131     153.1815      0.00000
   1132     153.1836      0.00000
   1133     153.1864      0.00000
   1134     153.1926      0.00000
   1135     153.1996      0.00000
   1136     153.1996      0.00000
   1137     153.2064      0.00000
   1138     153.2485      0.00000
   1139     153.2595      0.00000
   1140     153.2595      0.00000
   1141     153.2622      0.00000
   1142     155.8076      0.00000
   1143     155.9665      0.00000
   1144     155.9665      0.00000
   1145     156.0541      0.00000
   1146     156.2173      0.00000
   1147     156.2173      0.00000
   1148     156.3386      0.00000
   1149     156.3781      0.00000
   1150     156.3960      0.00000
   1151     156.4532      0.00000
   1152     156.4583      0.00000
   1153     156.4938      0.00000
   1154     156.4940      0.00000
   1155     156.4963      0.00000
   1156     156.4963      0.00000
   1157     156.5013      0.00000
   1158     156.5013      0.00000
   1159     156.5158      0.00000
   1160     156.5227      0.00000
   1161     156.5227      0.00000
   1162     156.5257      0.00000
   1163     156.5372      0.00000
   1164     156.5372      0.00000
   1165     156.6002      0.00000
   1166     156.6769      0.00000
   1167     156.7223      0.00000
   1168     156.7385      0.00000
   1169     156.7515      0.00000
   1170     156.7515      0.00000
   1171     156.7537      0.00000
   1172     156.7556      0.00000
   1173     156.7556      0.00000
   1174     156.7628      0.00000
   1175     156.7628      0.00000
   1176     156.7721      0.00000
   1177     156.7922      0.00000
   1178     156.9079      0.00000
   1179     156.9079      0.00000
   1180     156.9080      0.00000
   1181     156.9081      0.00000
   1182     156.9193      0.00000
   1183     156.9223      0.00000
   1184     156.9293      0.00000
   1185     156.9293      0.00000
   1186     156.9308      0.00000
   1187     156.9308      0.00000
   1188     156.9365      0.00000
   1189     156.9375      0.00000
   1190     159.9857      0.00000
   1191     160.0159      0.00000
   1192     160.0159      0.00000
   1193     160.1129      0.00000
   1194     160.1820      0.00000
   1195     160.2218      0.00000
   1196     160.2218      0.00000
   1197     160.2556      0.00000
   1198     160.2606      0.00000
   1199     160.2981      0.00000
   1200     160.3176      0.00000
   1201     160.3176      0.00000
   1202     160.3431      0.00000
   1203     160.3431      0.00000
   1204     160.3634      0.00000
   1205     160.3735      0.00000
   1206     160.3859      0.00000
   1207     160.3944      0.00000
   1208     160.3944      0.00000
   1209     160.3994      0.00000
   1210     160.4035      0.00000
   1211     160.4100      0.00000
   1212     160.4100      0.00000
   1213     160.4652      0.00000
   1214     163.5022      0.00000
   1215     163.5938      0.00000
   1216     163.5938      0.00000
   1217     163.6228      0.00000
   1218     163.9750      0.00000
   1219     163.9862      0.00000
   1220     164.0273      0.00000
   1221     164.0273      0.00000
   1222     164.0279      0.00000
   1223     164.1076      0.00000
   1224     164.1082      0.00000
   1225     164.1123      0.00000
   1226     164.1135      0.00000
   1227     164.1135      0.00000
   1228     164.1257      0.00000
   1229     164.1257      0.00000
   1230     164.1277      0.00000
   1231     164.1297      0.00000
   1232     164.1297      0.00000
   1233     164.1307      0.00000
   1234     164.1325      0.00000
   1235     164.1366      0.00000
   1236     164.1366      0.00000
   1237     164.1381      0.00000
   1238     166.7383      0.00000
   1239     166.7383      0.00000
   1240     166.7575      0.00000
   1241     166.9155      0.00000
   1242     167.1842      0.00000
   1243     167.3938      0.00000
   1244     167.3938      0.00000
   1245     167.4511      0.00000
   1246     167.4986      0.00000
   1247     167.4986      0.00000
   1248     167.5002      0.00000
   1249     167.5352      0.00000
   1250     167.5503      0.00000
   1251     167.5872      0.00000
   1252     167.5872      0.00000
   1253     167.5906      0.00000
   1254     167.5991      0.00000
   1255     167.6140      0.00000
   1256     167.6140      0.00000
   1257     167.6148      0.00000
   1258     167.6160      0.00000
   1259     167.6405      0.00000
   1260     167.6405      0.00000
   1261     167.6468      0.00000
   1262     167.6586      0.00000
   1263     167.6586      0.00000
   1264     167.6685      0.00000
   1265     167.6711      0.00000
   1266     167.6775      0.00000
   1267     167.6838      0.00000
   1268     167.7095      0.00000
   1269     167.7095      0.00000
   1270     167.7480      0.00000
   1271     167.7489      0.00000
   1272     167.7618      0.00000
   1273     167.7618      0.00000
   1274     167.7660      0.00000
   1275     167.7915      0.00000
   1276     167.8037      0.00000
   1277     167.8056      0.00000
   1278     167.8056      0.00000
   1279     167.8208      0.00000
   1280     167.8326      0.00000
   1281     167.8326      0.00000
   1282     167.8426      0.00000
   1283     167.8585      0.00000
   1284     167.8585      0.00000
   1285     167.8702      0.00000
   1286     167.9823      0.00000
   1287     167.9846      0.00000
   1288     167.9864      0.00000
   1289     167.9864      0.00000
   1290     167.9871      0.00000
   1291     167.9925      0.00000
   1292     167.9995      0.00000
   1293     167.9996      0.00000
   1294     167.9996      0.00000
   1295     168.0024      0.00000
   1296     168.0072      0.00000
   1297     168.0072      0.00000
   1298     168.0191      0.00000
   1299     168.0191      0.00000
   1300     168.0245      0.00000
   1301     168.0414      0.00000
   1302     168.0783      0.00000
   1303     168.0897      0.00000
   1304     168.0900      0.00000
   1305     168.0900      0.00000
   1306     168.0909      0.00000
   1307     168.0909      0.00000
   1308     168.0950      0.00000
   1309     168.0953      0.00000
   1310     170.8407      0.00000
   1311     171.0936      0.00000
   1312     171.1216      0.00000
   1313     171.1216      0.00000
   1314     171.3195      0.00000
   1315     171.3421      0.00000
   1316     171.3421      0.00000
   1317     171.4394      0.00000
   1318     171.4449      0.00000
   1319     171.4609      0.00000
   1320     171.4609      0.00000
   1321     171.4780      0.00000
   1322     171.5079      0.00000
   1323     171.5083      0.00000
   1324     171.5083      0.00000
   1325     171.5095      0.00000
   1326     171.5194      0.00000
   1327     171.5485      0.00000
   1328     171.5691      0.00000
   1329     171.5711      0.00000
   1330     171.5718      0.00000
   1331     171.5718      0.00000
   1332     171.5951      0.00000
   1333     171.5951      0.00000
   1334     171.6114      0.00000
   1335     171.6196      0.00000
   1336     171.6344      0.00000
   1337     171.6344      0.00000
   1338     171.6402      0.00000
   1339     171.6458      0.00000
   1340     171.6487      0.00000
   1341     171.6489      0.00000
   1342     171.6489      0.00000
   1343     171.6526      0.00000
   1344     171.6554      0.00000
   1345     171.6554      0.00000
   1346     171.6595      0.00000
   1347     171.6595      0.00000
   1348     171.6616      0.00000
   1349     171.6648      0.00000
   1350     171.6648      0.00000
   1351     171.6730      0.00000
   1352     171.6732      0.00000
   1353     171.6861      0.00000
   1354     171.7285      0.00000
   1355     171.7285      0.00000
   1356     171.7302      0.00000
   1357     171.7373      0.00000
   1358     178.7801      0.00000
   1359     178.7873      0.00000
   1360     178.7873      0.00000
   1361     178.8192      0.00000
   1362     178.9654      0.00000
   1363     178.9656      0.00000
   1364     178.9656      0.00000
   1365     179.0340      0.00000
   1366     181.2837      0.00000
   1367     181.5013      0.00000
   1368     181.5013      0.00000
   1369     181.8759      0.00000
   1370     182.3057      0.00000
   1371     182.3695      0.00000
   1372     182.3695      0.00000
   1373     182.4123      0.00000
   1374     182.4534      0.00000
   1375     182.4540      0.00000
   1376     182.4639      0.00000
   1377     182.4781      0.00000
   1378     182.4781      0.00000
   1379     182.5058      0.00000
   1380     182.5211      0.00000
   1381     182.5402      0.00000
   1382     182.5402      0.00000
   1383     182.5585      0.00000
   1384     182.5768      0.00000
   1385     182.5798      0.00000
   1386     182.5935      0.00000
   1387     182.5935      0.00000
   1388     182.6077      0.00000
   1389     182.6077      0.00000
   1390     182.6189      0.00000
   1391     182.6331      0.00000
   1392     182.6358      0.00000
   1393     182.6358      0.00000
   1394     182.6539      0.00000
   1395     182.6987      0.00000
   1396     182.8065      0.00000
   1397     182.8666      0.00000
   1398     182.8666      0.00000
   1399     182.8922      0.00000
   1400     182.8962      0.00000
   1401     182.8962      0.00000
   1402     182.8978      0.00000
   1403     182.9013      0.00000
   1404     182.9013      0.00000
   1405     182.9070      0.00000
   1406     182.9070      0.00000
   1407     182.9384      0.00000
   1408     182.9391      0.00000
   1409     182.9503      0.00000
   1410     182.9569      0.00000
   1411     182.9569      0.00000
[...]
   4320     376.9786      0.00000
   4321     376.9903      0.00000
   4322     377.0011      0.00000
   4323     377.0016      0.00000
   4324     377.0016      0.00000
   4325     377.0016      0.00000
   4326     377.0033      0.00000
   4327     377.0033      0.00000
   4328     377.0052      0.00000
   4329     377.0209      0.00000
   4330     377.0474      0.00000
   4331     377.0807      0.00000
   4332     377.0807      0.00000
   4333     377.6510      0.00000
   4334     377.7193      0.00000
   4335     377.7790      0.00000
   4336     377.7790      0.00000
   4337     377.8182      0.00000
   4338     380.3073      0.00000
   4339     380.3541      0.00000
   4340     380.4023      0.00000
   4341     380.4023      0.00000
   4342     380.4535      0.00000
   4343     380.4535      0.00000
   4344     380.4634      0.00000
   4345     380.4746      0.00000
   4346     380.4776      0.00000
   4347     380.4790      0.00000
   4348     380.4861      0.00000
   4349     380.4861      0.00000
   4350     380.4867      0.00000
   4351     380.4881      0.00000
   4352     380.4893      0.00000
   4353     380.4893      0.00000
   4354     380.4924      0.00000
   4355     380.4937      0.00000
   4356     380.4937      0.00000
   4357     380.4939      0.00000
   4358     380.4960      0.00000
   4359     380.4977      0.00000
   4360     380.4977      0.00000
   4361     380.4979      0.00000
   4362     380.5005      0.00000
   4363     380.5047      0.00000
   4364     380.5047      0.00000
   4365     380.5053      0.00000
   4366     380.5061      0.00000
   4367     380.5092      0.00000
   4368     380.5092      0.00000
   4369     380.5121      0.00000
   4370     380.5121      0.00000
   4371     380.5221      0.00000
   4372     380.5241      0.00000
   4373     380.5241      0.00000
   4374     380.5242      0.00000
   4375     380.5919      0.00000
   4376     380.5919      0.00000
   4377     380.6779      0.00000
   4378     380.6921      0.00000
   4379     380.6924      0.00000
   4380     380.6924      0.00000
   4381     380.8018      0.00000
   4382     380.8018      0.00000
   4383     380.8808      0.00000
   4384     380.9984      0.00000
   4385     381.0635      0.00000
   4386     387.5617      0.00000
   4387     387.6913      0.00000
   4388     387.6913      0.00000
   4389     387.7434      0.00000
   4390     387.7635      0.00000
   4391     387.7653      0.00000
   4392     387.7653      0.00000
   4393     387.7923      0.00000
   4394     387.8344      0.00000
   4395     387.8344      0.00000
   4396     387.8374      0.00000
   4397     387.8663      0.00000
   4398     387.8800      0.00000
   4399     387.9101      0.00000
   4400     387.9101      0.00000
   4401     387.9303      0.00000
   4402     387.9304      0.00000
   4403     387.9304      0.00000
   4404     387.9317      0.00000
   4405     387.9335      0.00000
   4406     387.9335      0.00000
   4407     387.9341      0.00000
   4408     387.9342      0.00000
   4409     387.9342      0.00000
   4410     387.9348      0.00000
   4411     387.9416      0.00000
   4412     387.9433      0.00000
   4413     387.9552      0.00000
   4414     387.9552      0.00000
   4415     387.9602      0.00000
   4416     387.9642      0.00000
   4417     387.9666      0.00000
   4418     387.9666      0.00000
   4419     387.9666      0.00000
   4420     387.9691      0.00000
   4421     387.9691      0.00000
   4422     387.9741      0.00000
   4423     387.9748      0.00000
   4424     387.9773      0.00000
   4425     387.9785      0.00000
   4426     387.9806      0.00000
   4427     387.9822      0.00000
   4428     387.9822      0.00000
   4429     387.9828      0.00000
   4430     387.9850      0.00000
   4431     387.9850      0.00000
   4432     387.9860      0.00000
   4433     387.9878      0.00000
   4434     387.9932      0.00000
   4435     387.9937      0.00000
   4436     387.9937      0.00000
   4437     387.9947      0.00000
   4438     387.9973      0.00000
   4439     388.0015      0.00000
   4440     388.0015      0.00000
   4441     388.0037      0.00000
   4442     388.0066      0.00000
   4443     388.0075      0.00000
   4444     388.0075      0.00000
   4445     388.0090      0.00000
   4446     388.0391      0.00000
   4447     388.0425      0.00000
   4448     388.0425      0.00000
   4449     388.0465      0.00000
   4450     388.0518      0.00000
   4451     388.0518      0.00000
   4452     388.0532      0.00000
   4453     388.3879      0.00000
   4454     388.3879      0.00000
   4455     388.4473      0.00000
   4456     388.4489      0.00000
   4457     388.4906      0.00000
   4458     391.2749      0.00000
   4459     391.3779      0.00000
   4460     391.4512      0.00000
   4461     391.4512      0.00000
   4462     391.4677      0.00000
   4463     391.4725      0.00000
   4464     391.4725      0.00000
   4465     391.4749      0.00000
   4466     391.4787      0.00000
   4467     391.4787      0.00000
   4468     391.4844      0.00000
   4469     391.4854      0.00000
   4470     391.4856      0.00000
   4471     391.4856      0.00000
   4472     391.4946      0.00000
   4473     391.4952      0.00000
   4474     391.5023      0.00000
   4475     391.5023      0.00000
   4476     391.5128      0.00000
   4477     391.5245      0.00000
   4478     391.5245      0.00000
   4479     391.5258      0.00000
   4480     391.5278      0.00000
   4481     391.5376      0.00000
   4482     391.5376      0.00000
   4483     391.5377      0.00000
   4484     391.5649      0.00000
   4485     391.5764      0.00000
   4486     391.5808      0.00000
   4487     391.5808      0.00000
   4488     391.5843      0.00000
   4489     391.5920      0.00000
   4490     391.5977      0.00000
   4491     391.5994      0.00000
   4492     391.5994      0.00000
   4493     391.6004      0.00000
   4494     391.6056      0.00000
   4495     391.6056      0.00000
   4496     391.6134      0.00000
   4497     391.6204      0.00000
   4498     391.6204      0.00000
   4499     391.6381      0.00000
   4500     391.6470      0.00000
   4501     391.6626      0.00000
   4502     391.6711      0.00000
   4503     391.6830      0.00000
   4504     391.7184      0.00000
   4505     391.7184      0.00000
   4506     391.7321      0.00000
   4507     391.7321      0.00000
   4508     391.7644      0.00000
   4509     391.7646      0.00000
   4510     391.8037      0.00000
   4511     391.8037      0.00000
   4512     391.8043      0.00000
   4513     391.8044      0.00000
   4514     391.8045      0.00000
   4515     391.8045      0.00000
   4516     391.8047      0.00000
   4517     391.8048      0.00000
   4518     391.8190      0.00000
   4519     391.8190      0.00000
   4520     391.8190      0.00000
   4521     391.8190      0.00000
   4522     391.8342      0.00000
   4523     391.8460      0.00000
   4524     391.8460      0.00000
   4525     391.8496      0.00000
   4526     391.8496      0.00000
   4527     391.8593      0.00000
   4528     391.8606      0.00000
   4529     391.8700      0.00000
   4530     391.8836      0.00000
   4531     391.8836      0.00000
   4532     391.8851      0.00000
   4533     391.8910      0.00000
   4534     391.8910      0.00000
   4535     391.8920      0.00000
   4536     391.8931      0.00000
   4537     391.9323      0.00000
   4538     391.9376      0.00000
   4539     391.9404      0.00000
   4540     391.9404      0.00000
   4541     391.9452      0.00000
   4542     391.9469      0.00000
   4543     391.9469      0.00000
   4544     391.9471      0.00000
   4545     392.0106      0.00000
   4546     392.0222      0.00000
   4547     392.0222      0.00000
   4548     392.0222      0.00000
   4549     392.3115      0.00000
   4550     392.3115      0.00000
   4551     392.4547      0.00000
   4552     392.6169      0.00000
   4553     392.8297      0.00000
   4554     395.0943      0.00000
   4555     395.1709      0.00000
   4556     395.1709      0.00000
   4557     395.1932      0.00000
   4558     395.1966      0.00000
   4559     395.2036      0.00000
   4560     395.2036      0.00000
   4561     395.2037      0.00000
   4562     395.2101      0.00000
   4563     395.2101      0.00000
   4564     395.2217      0.00000
   4565     395.2262      0.00000
   4566     395.2488      0.00000
   4567     395.2488      0.00000
   4568     395.2495      0.00000
   4569     395.2560      0.00000
   4570     395.2602      0.00000
   4571     395.2623      0.00000
   4572     395.2623      0.00000
   4573     395.2680      0.00000
   4574     395.2846      0.00000
   4575     395.2911      0.00000
   4576     395.2911      0.00000
   4577     395.2937      0.00000
   4578     395.2937      0.00000
   4579     395.3129      0.00000
   4580     395.3180      0.00000
   4581     395.3386      0.00000
   4582     395.3501      0.00000
   4583     395.3501      0.00000
   4584     395.3584      0.00000
   4585     395.3781      0.00000
   4586     395.3844      0.00000
   4587     395.3905      0.00000
   4588     395.3905      0.00000
   4589     395.3999      0.00000
   4590     395.4016      0.00000
   4591     395.4082      0.00000
   4592     395.4082      0.00000
   4593     395.4120      0.00000
   4594     395.4120      0.00000
   4595     395.4139      0.00000
   4596     395.4153      0.00000
   4597     395.4235      0.00000
   4598     395.5213      0.00000
   4599     395.5279      0.00000
   4600     395.5321      0.00000
   4601     395.5321      0.00000
   4602     395.5338      0.00000
   4603     395.5338      0.00000
   4604     395.5357      0.00000
   4605     395.5357      0.00000
   4606     395.5391      0.00000
   4607     395.5405      0.00000
   4608     395.5508      0.00000
   4609     395.5508      0.00000
   4610     395.5894      0.00000
   4611     395.5894      0.00000
   4612     395.6054      0.00000
   4613     395.6060      0.00000
   4614     395.6060      0.00000
   4615     395.6145      0.00000
   4616     395.6148      0.00000
   4617     395.6234      0.00000
   4618     395.6236      0.00000
   4619     395.6236      0.00000
   4620     395.6283      0.00000
   4621     396.0522      0.00000
   4622     396.1159      0.00000
   4623     396.1159      0.00000
   4624     396.1873      0.00000
   4625     396.3166      0.00000
   4626     398.8590      0.00000
   4627     398.9394      0.00000
   4628     398.9618      0.00000
   4629     398.9618      0.00000
   4630     399.0120      0.00000
   4631     399.0704      0.00000
   4632     399.0704      0.00000
   4633     399.0990      0.00000
   4634     399.0999      0.00000
   4635     399.1046      0.00000
   4636     399.1046      0.00000
   4637     399.1057      0.00000
   4638     399.1077      0.00000
   4639     399.1077      0.00000
   4640     399.1117      0.00000
   4641     399.1124      0.00000
   4642     399.1124      0.00000
   4643     399.1199      0.00000
   4644     399.1266      0.00000
   4645     399.1306      0.00000
   4646     399.1316      0.00000
   4647     399.1316      0.00000
   4648     399.1349      0.00000
   4649     399.1373      0.00000
   4650     399.1373      0.00000
   4651     399.1399      0.00000
   4652     399.1415      0.00000
   4653     399.1661      0.00000
   4654     399.1680      0.00000
   4655     399.1708      0.00000
   4656     399.1708      0.00000
   4657     399.2018      0.00000
   4658     399.2020      0.00000
   4659     399.2054      0.00000
   4660     399.2061      0.00000
   4661     399.2061      0.00000
   4662     399.2066      0.00000
   4663     399.2066      0.00000
   4664     399.2108      0.00000
   4665     399.2117      0.00000
   4666     399.2120      0.00000
   4667     399.2120      0.00000
   4668     399.2171      0.00000
   4669     399.2244      0.00000
   4670     399.2255      0.00000
   4671     399.2255      0.00000
   4672     399.2265      0.00000
   4673     399.2266      0.00000
   4674     399.2266      0.00000
   4675     399.2269      0.00000
   4676     399.2304      0.00000
   4677     399.2317      0.00000
   4678     399.2335      0.00000
   4679     399.2345      0.00000
   4680     399.2418      0.00000
   4681     399.2418      0.00000
   4682     399.2456      0.00000
   4683     399.2461      0.00000
   4684     399.2461      0.00000
   4685     399.2494      0.00000
   4686     399.2711      0.00000
   4687     399.2808      0.00000
   4688     399.2877      0.00000
   4689     399.2877      0.00000
   4690     399.2897      0.00000
   4691     399.2997      0.00000
   4692     399.2997      0.00000
   4693     400.0015      0.00000
   4694     400.0096      0.00000
   4695     400.0096      0.00000
   4696     400.0348      0.00000
   4697     400.2664      0.00000
   4698   10000.0000      0.00000
   4699   10000.0000      0.00000
   4700   10000.0000      0.00000
   4701   10000.0000      0.00000
   4702   10000.0000      0.00000
   4703   10000.0000      0.00000
   4704   10000.0000      0.00000


--------------------------------------------------------------------------------------------------------


 soft charge-density along one line, spin component           1
         0         1         2         3         4         5         6         7         8         9
 total charge-density along one line
 
 pseudopotential strength for first ion, spin component:           1
  0.613  -3.124   0.000  -0.027   0.000  -0.000   0.090  -0.000
 -3.124  16.843  -0.000   0.076  -0.000   0.000  -0.362   0.000
  0.000  -0.000  -4.242  -0.000   0.000   8.090  -0.000   0.000
 -0.027   0.076  -0.000  -4.238  -0.000  -0.000   8.099  -0.000
  0.000  -0.000   0.000  -0.000  -4.242   0.000  -0.000   8.090
 -0.000   0.000   8.090  -0.000   0.000 -42.561   0.000  -0.000
  0.090  -0.362  -0.000   8.099  -0.000   0.000 -42.608   0.000
 -0.000   0.000   0.000  -0.000   8.090  -0.000   0.000 -42.561
 -0.000   0.000  -0.000   0.000  -0.000  -0.000   0.000  -0.000
  0.000  -0.000   0.004  -0.000   0.000   0.021  -0.000   0.000
 -0.002   0.004   0.000   0.004   0.000   0.000   0.024   0.000
  0.000  -0.000   0.000  -0.000   0.004   0.000  -0.000   0.021
 -0.000   0.000   0.000  -0.000  -0.000   0.000  -0.000  -0.000
 total augmentation occupancy for first ion, spin component:           1
  1.074   0.030  -0.000   0.372  -0.000  -0.000   0.019   0.000   0.000  -0.000   0.154   0.000   0.000
  0.030   0.001  -0.000   0.010  -0.000  -0.000   0.001   0.000   0.000  -0.000   0.004   0.000   0.000
 -0.000  -0.000   0.000  -0.000   0.000   0.000  -0.000  -0.000  -0.000   0.000  -0.000  -0.000  -0.000
  0.372   0.010  -0.000   0.129  -0.000  -0.000   0.006   0.000   0.000  -0.000   0.053   0.000   0.000
 -0.000  -0.000   0.000  -0.000   0.000   0.000  -0.000  -0.000  -0.000   0.000  -0.000  -0.000  -0.000
 -0.000  -0.000   0.000  -0.000   0.000   0.000  -0.000  -0.000  -0.000   0.000  -0.000  -0.000  -0.000
  0.019   0.001  -0.000   0.006  -0.000  -0.000   0.000   0.000   0.000  -0.000   0.003   0.000   0.000
  0.000   0.000  -0.000   0.000  -0.000  -0.000   0.000   0.000   0.000  -0.000   0.000   0.000   0.000
  0.000   0.000  -0.000   0.000  -0.000  -0.000   0.000   0.000   0.000  -0.000   0.000   0.000   0.000
 -0.000  -0.000   0.000  -0.000   0.000   0.000  -0.000  -0.000  -0.000   0.000  -0.000  -0.000  -0.000
  0.154   0.004  -0.000   0.053  -0.000  -0.000   0.003   0.000   0.000  -0.000   0.022   0.000   0.000
  0.000   0.000  -0.000   0.000  -0.000  -0.000   0.000   0.000   0.000  -0.000   0.000   0.000   0.000
  0.000   0.000  -0.000   0.000  -0.000  -0.000   0.000   0.000   0.000  -0.000   0.000   0.000   0.000


------------------------ aborting loop because EDIFF is reached ----------------------------------------


    CHARGE:  cpu time      0.0041: real time      0.0041
    FORLOC:  cpu time      0.0005: real time      0.0005
    FORHF :  cpu time      0.0176: real time      0.0177
    FORNL :  cpu time      0.0251: real time      0.0253
    FORCOR:  cpu time      0.0085: real time      0.0085
    FORHAR:  cpu time      0.0019: real time      0.0020
    MIXING:  cpu time      0.0002: real time      0.0002
    OFIELD:  cpu time      0.0001: real time      0.0001

 VOLUME and BASIS-vectors are now :
 -----------------------------------------------------------------------------
  energy-cutoff  :      400.00
  volume of cell :      256.05
      direct lattice vectors                 reciprocal lattice vectors
     6.350017565  0.000000000  0.000000000     0.157479879  0.000000000  0.000000000
     0.000000000  6.350017565  0.000000000     0.000000000  0.157479879  0.000000000
     0.000000000  0.000000000  6.350017565     0.000000000  0.000000000  0.157479879

  length of vectors
     6.350017565  6.350017565  6.350017565     0.157479879  0.157479879  0.157479879


 FORCES acting on ions
    electron-ion (+dipol)            ewald-force                    non-local-force                 convergence-correction
 -----------------------------------------------------------------------------------------------
   -.354E-11 -.150E-10 0.570E+01   -.102E-17 -.209E-17 -.502E+01   0.389E-11 0.109E-10 -.104E+01   -.194E-11 -.828E-11 -.122E-03
   -.103E-10 -.371E-10 -.375E+01   -.214E-17 0.525E-17 0.502E+01   0.358E-12 -.359E-11 -.799E+00   -.120E-10 -.414E-10 -.662E-04
 -----------------------------------------------------------------------------------------------
   -.139E-10 -.521E-10 0.195E+01   -.316E-17 0.316E-17 0.000E+00   0.425E-11 0.729E-11 -.184E+01   -.139E-10 -.497E-10 -.188E-03
 
 
 POSITION                                       TOTAL-FORCE (eV/Angst)
 -----------------------------------------------------------------------------------
      0.00000      0.00000      0.00000         0.000000      0.000000     -0.407098
      0.00000      0.00000      1.62106        -0.000000     -0.000000      0.407098
 -----------------------------------------------------------------------------------
    total drift:                               -0.000000     -0.000000     -0.000425


--------------------------------------------------------------------------------------------------------



  FREE ENERGIE OF THE ION-ELECTRON SYSTEM (eV)
  ---------------------------------------------------
  free  energy   TOTEN  =        -7.88661498 eV

  energy  without entropy=       -7.88661498  energy(sigma->0) =       -7.88661498
 


--------------------------------------------------------------------------------------------------------


    POTLOK:  cpu time      0.0112: real time      0.0113


--------------------------------------------------------------------------------------------------------


 writing wavefunctions
     LOOP+:  cpu time     21.0595: real time     21.2416
    4ORBIT:  cpu time      0.0000: real time      0.0000

 total amount of memory used by VASP MPI-rank0   111229. kBytes
=======================================================================

   base      :      30000. kBytes
   nonl-proj :        564. kBytes
   fftplans  :        785. kBytes
   grid      :       3795. kBytes
   one-center:          8. kBytes
   HF        :         67. kBytes
   nonlr-proj:        310. kBytes
   wavefun   :       3725. kBytes
   fock_wrk  :      71975. kBytes
 
  
  
 General timing and accounting informations for this job:
 ========================================================
  
                  Total CPU time used (sec):       23.907
                            User time (sec):       22.571
                          System time (sec):        1.336
                         Elapsed time (sec):       24.308
  
                   Maximum memory used (kb):      645352.
                   Average memory used (kb):          N/A
  
                          Minor page faults:       170353
                          Major page faults:         6362
                 Voluntary context switches:         2137
