 vasp.6.3.0 20Jan22 (build Mar 06 2023 08:06:32) gamma-only                     
  
 executed on             LinuxIFC date 2025.05.22  11:40:50
 running on    1 total cores
 distrk:  each k-point on    1 cores,    1 groups
 distr:  one band on NCORE=   1 cores,    1 groups


--------------------------------------------------------------------------------------------------------


 INCAR:
   ENCUT = 400
   EDIFF = 1E-6
   ISYM = -1
   PREC = Accurate

 POTCAR:    PAW_PBE Li_GW 23Jun2021               
 POTCAR:    PAW_PBE H_GW 21Apr2008                
 POTCAR:    PAW_PBE Li_GW 23Jun2021               
   SHA256 =  8825fb35c7e4969bc2ee643901f25156348bca79849b21eacd5f3f060d4d23e8 Li_GW/POTCAR          
   COPYR  = (c) Copyright 23Jun2021 Georg Kresse                                                    
   COPYR  = This file is part of the software VASP. Any use, copying, and all other rights are regul
   COPYR  = If you do not have a valid VASP license, you may not use, copy or distribute this file. 
   VRHFIN =Li: s1p0                                                                                 
   LEXCH  = PE                                                                                      
   EATOM  =     5.3001 eV,    0.3895 Ry                                                             
                                                                                                    
   TITEL  = PAW_PBE Li_GW 23Jun2021                                                                 
   LULTRA =        F    use ultrasoft PP ?                                                          
   IUNSCR =        1    unscreen: 0-lin 1-nonlin 2-no                                               
   RPACOR =    1.500    partial core radius                                                         
   POMASS =    7.010; ZVAL   =    1.000    mass and valenz                                          
   RCORE  =    2.100    outmost cutoff radius                                                       
   RWIGS  =    2.600; RWIGS  =    1.376    wigner-seitz radius (au A)                               
   ENMAX  =  112.104; ENMIN  =   84.078 eV                                                          
   RCLOC  =    2.012    cutoff for local pot                                                        
   LCOR   =        T    correct aug charges                                                         
   LPAW   =        T    paw PP                                                                      
   EAUG   =  483.286                                                                                
   DEXC   =   -0.000                                                                                
   RMAX   =    2.149    core radius for proj-oper                                                   
   RAUG   =    1.300    factor for augmentation sphere                                              
   RDEP   =    2.232    radius for radial grids                                                     
   RDEPT  =    1.854    core radius for aug-charge                                                  
                                                                                                    
   Atomic configuration                                                                             
    4 entries                                                                                       
     n  l   j            E        occ.                                                              
     1  0  0.50       -51.8549   2.0000                                                             
     2  0  0.50        -2.8742   1.0000                                                             
     2  1  0.50        -2.8708   0.0000                                                             
     3  2  1.50        -1.3606   0.0000                                                             
   Description                                                                                      
     l       E           TYP  RCUT    TYP  RCUT                                                     
     0     -2.8742051     23  2.100                                                                 
     0     54.4233040     23  2.100                                                                 
     1     -2.8708293     23  2.050                                                                 
     1     54.4233040     23  2.050                                                                 
     2     -1.3605826     23  2.050                                                                 
  local pseudopotential read in
  partial core-charges read in
  partial kinetic energy density read in
  kinetic energy density of atom read in
  atomic valenz-charges read in
  non local Contribution for L=           0  read in
    real space projection operators read in
  non local Contribution for L=           0  read in
    real space projection operators read in
  non local Contribution for L=           1  read in
    real space projection operators read in
  non local Contribution for L=           1  read in
    real space projection operators read in
  non local Contribution for L=           2  read in
    real space projection operators read in
    PAW grid and wavefunctions read in
 
   number of l-projection  operators is LMAX  =           5
   number of lm-projection operators is LMMAX =          13
 
 POTCAR:    PAW_PBE H_GW 21Apr2008                
   SHA256 =  cecc88617a3d1ece9865646f5d462fc0f44fd1f68d6f2eb08f18a2e421902afb H_GW/POTCAR           
   COPYR  = (c) Copyright 21Apr2008 Georg Kresse                                                    
   COPYR  = This file is part of the software VASP. Any use, copying, and all other rights are regul
   COPYR  = If you do not have a valid VASP license, you may not use, copy or distribute this file. 
   VRHFIN =H: ultrasoft test                                                                        
   LEXCH  = PE                                                                                      
   EATOM  =    12.4884 eV,    0.9179 Ry                                                             
                                                                                                    
   TITEL  = PAW_PBE H_GW 21Apr2008                                                                  
   LULTRA =        F    use ultrasoft PP ?                                                          
   IUNSCR =        0    unscreen: 0-lin 1-nonlin 2-no                                               
   RPACOR =    0.000    partial core radius                                                         
   POMASS =    1.000; ZVAL   =    1.000    mass and valenz                                          
   RCORE  =    1.100    outmost cutoff radius                                                       
   RWIGS  =    1.100; RWIGS  =    0.582    wigner-seitz radius (au A)                               
   ENMAX  =  300.000; ENMIN  =  250.000 eV                                                          
   RCLOC  =    0.701    cutoff for local pot                                                        
   LCOR   =        T    correct aug charges                                                         
   LPAW   =        T    paw PP                                                                      
   EAUG   =  500.000                                                                                
   RMAX   =    1.123    core radius for proj-oper                                                   
   RAUG   =    1.200    factor for augmentation sphere                                              
   RDEP   =    1.112    radius for radial grids                                                     
   RDEPT  =    1.100    core radius for aug-charge                                                  
                                                                                                    
   Atomic configuration                                                                             
    3 entries                                                                                       
     n  l   j            E        occ.                                                              
     1  0  0.50        -6.4927   1.0000                                                             
     2  1  0.50        -3.4015   0.0000                                                             
     3  2  1.50        13.6058   0.0000                                                             
   Description                                                                                      
     l       E           TYP  RCUT    TYP  RCUT                                                     
     0     -6.4927495     23  0.950                                                                 
     0      6.8029130     23  0.950                                                                 
     1     -4.0817478     23  1.100                                                                 
     1    108.8466080     23  1.100                                                                 
     2     81.6349560     23  1.100                                                                 
  local pseudopotential read in
  kinetic energy density of atom read in
  atomic valenz-charges read in
  non local Contribution for L=           0  read in
    real space projection operators read in
  non local Contribution for L=           0  read in
    real space projection operators read in
  non local Contribution for L=           1  read in
    real space projection operators read in
  non local Contribution for L=           1  read in
    real space projection operators read in
  non local Contribution for L=           2  read in
    real space projection operators read in
    PAW grid and wavefunctions read in
 
   number of l-projection  operators is LMAX  =           5
   number of lm-projection operators is LMMAX =          13
 
  PAW_PBE Li_GW 23Jun2021               :
 energy of atom  1       EATOM=   -5.3001
 kinetic energy error for atom=    0.0000 (will be added to EATOM!!)
  PAW_PBE H_GW 21Apr2008                :
 energy of atom  2       EATOM=  -12.4884
 kinetic energy error for atom=    0.0317 (will be added to EATOM!!)
 
 
 POSCAR: LiH
  positions in cartesian coordinates
  No initial velocities read in
 exchange correlation table for  LEXCH =        8
   RHO(1)=    0.500       N(1)  =     2000
   RHO(2)=  100.500       N(2)  =     4000
 


--------------------------------------------------------------------------------------------------------


 ion  position               nearest neighbor table
   1  0.000  0.000  0.000-   2 1.62
   2  0.000  0.000  0.219-   1 1.62
 

IMPORTANT INFORMATION: All symmetrisations will be switched off!
NOSYMM: (Re-)initialisation of all symmetry stuff for point group C_1.


----------------------------------------------------------------------------------------

                                     Primitive cell                                     

  volume of cell :     406.5400

  direct lattice vectors                    reciprocal lattice vectors
     7.408002056  0.000000000  0.000000000     0.134989163  0.000000000  0.000000000
     0.000000000  7.408002056  0.000000000     0.000000000  0.134989163  0.000000000
     0.000000000  0.000000000  7.408002056     0.000000000  0.000000000  0.134989163

  length of vectors
     7.408002056  7.408002056  7.408002056     0.134989163  0.134989163  0.134989163

  position of ions in fractional coordinates (direct lattice)
     0.000000000  0.000000000  0.000000000
     0.000000000  0.000000000  0.218825931

  ion indices of the primitive-cell ions
   primitive index   ion index
                 1           1
                 2           2

----------------------------------------------------------------------------------------

 
 
 KPOINTS: Automatically generated mesh            

Automatic generation of k-mesh.
 Grid dimensions read from file:
 generate k-points for:    1    1    1

 Generating k-lattice:

  Cartesian coordinates                     Fractional coordinates (reciprocal lattice)
     0.134989163  0.000000000  0.000000000     1.000000000  0.000000000  0.000000000
     0.000000000  0.134989163  0.000000000     0.000000000  1.000000000  0.000000000
     0.000000000  0.000000000  0.134989163     0.000000000  0.000000000  1.000000000

  Length of vectors
     0.134989163  0.134989163  0.134989163

  Shift w.r.t. Gamma in fractional coordinates (k-lattice)
     0.000000000  0.000000000  0.000000000

 
 Subroutine IBZKPT returns following result:
 ===========================================
 
 Found      1 irreducible k-points:
 
 Following reciprocal coordinates:
            Coordinates               Weight
  0.000000  0.000000  0.000000      1.000000
 
 Following cartesian coordinates:
            Coordinates               Weight
  0.000000  0.000000  0.000000      1.000000
 


--------------------------------------------------------------------------------------------------------




 Dimension of arrays:
   k-points           NKPTS =      1   k-points in BZ     NKDIM =      1   number of bands    NBANDS=      5
   number of dos      NEDOS =    301   number of ions     NIONS =      2
   non local maximal  LDIM  =      5   non local SUM 2l+1 LMDIM =     13
   total plane-waves  NPLWV = 110592
   max r-space proj   IRMAX =      1   max aug-charges    IRDMAX=  10745
   dimension x,y,z NGX =    48 NGY =   48 NGZ =   48
   dimension x,y,z NGXF=    96 NGYF=   96 NGZF=   96
   support grid    NGXF=    96 NGYF=   96 NGZF=   96
   ions per type =               1   1
   NGX,Y,Z   is equivalent  to a cutoff of  10.77, 10.77, 10.77 a.u.
   NGXF,Y,Z  is equivalent  to a cutoff of  21.54, 21.54, 21.54 a.u.

 SYSTEM =  unknown system                          
 POSCAR =  LiH                                     

 Startparameter for this run:
   NWRITE =      2    write-flag & timer
   PREC   = accura    normal or accurate (medium, high low for compatibility)
   ISTART =      0    job   : 0-new  1-cont  2-samecut
   ICHARG =      2    charge: 1-file 2-atom 10-const
   ISPIN  =      1    spin polarized calculation?
   LNONCOLLINEAR =      F non collinear calculations
   LSORBIT =      F    spin-orbit coupling
   INIWAV =      1    electr: 0-lowe 1-rand  2-diag
   LASPH  =      F    aspherical Exc in radial PAW
 Electronic Relaxation 1
   ENCUT  =  400.0 eV  29.40 Ry    5.42 a.u.  12.08 12.08 12.08*2*pi/ulx,y,z
   ENINI  =  400.0     initial cutoff
   ENAUG  =  500.0 eV  augmentation charge cutoff
   NELM   =     60;   NELMIN=  2; NELMDL= -5     # of ELM steps 
   EDIFF  = 0.1E-05   stopping-criterion for ELM
   LREAL  =      F    real-space projection
   NLSPLINE    = F    spline interpolate recip. space projectors
   LCOMPAT=      F    compatible to vasp.4.4
   GGA_COMPAT  = T    GGA compatible to vasp.4.4-vasp.4.6
   LMAXPAW     = -100 max onsite density
   LMAXMIX     =    2 max onsite mixed and CHGCAR
   VOSKOWN=      0    Vosko Wilk Nusair interpolation
   ROPT   =    0.00000   0.00000
 Ionic relaxation
   EDIFFG = 0.1E-04   stopping-criterion for IOM
   NSW    =      0    number of steps for IOM
   NBLOCK =      1;   KBLOCK =      1    inner block; outer block 
   IBRION =     -1    ionic relax: 0-MD 1-quasi-New 2-CG
   NFREE  =      0    steps in history (QN), initial steepest desc. (CG)
   ISIF   =      2    stress and relaxation
   IWAVPR =     10    prediction:  0-non 1-charg 2-wave 3-comb
   ISYM   =     -1    0-nonsym 1-usesym 2-fastsym
   LCORR  =      T    Harris-Foulkes like correction to forces

   POTIM  = 0.5000    time-step for ionic-motion
   TEIN   =    0.0    initial temperature
   TEBEG  =    0.0;   TEEND  =   0.0 temperature during run
   SMASS  =  -3.00    Nose mass-parameter (am)
   estimated Nose-frequenzy (Omega)   =  0.10E-29 period in steps = 0.13E+47 mass=  -0.125E-26a.u.
   SCALEE = 1.0000    scale energy and forces
   NPACO  =    256;   APACO  = 10.0  distance and # of slots for P.C.
   PSTRESS=    0.0 pullay stress

  Mass of Ions in am
   POMASS =   7.01  1.00
  Ionic Valenz
   ZVAL   =   1.00  1.00
  Atomic Wigner-Seitz radii
   RWIGS  =  -1.00 -1.00
  virtual crystal weights 
   VCA    =   1.00  1.00
   NELECT =       2.0000    total number of electrons
   NUPDOWN=      -1.0000    fix difference up-down

 DOS related values:
   EMIN   =  10.00;   EMAX   =-10.00  energy-range for DOS
   EFERMI =   0.00
   ISMEAR =     1;   SIGMA  =   0.20  broadening in eV -4-tet -1-fermi 0-gaus

 Electronic relaxation 2 (details)
   IALGO  =     38    algorithm
   LDIAG  =      T    sub-space diagonalisation (order eigenvalues)
   LSUBROT=      F    optimize rotation matrix (better conditioning)
   TURBO    =      0    0=normal 1=particle mesh
   IRESTART =      0    0=no restart 2=restart with 2 vectors
   NREBOOT  =      0    no. of reboots
   NMIN     =      0    reboot dimension
   EREF     =   0.00    reference energy to select bands
   IMIX   =      4    mixing-type and parameters
     AMIX     =   0.40;   BMIX     =  1.00
     AMIX_MAG =   1.60;   BMIX_MAG =  1.00
     AMIN     =   0.10
     WC   =   100.;   INIMIX=   1;  MIXPRE=   1;  MAXMIX= -45

 Intra band minimization:
   WEIMIN = 0.0000     energy-eigenvalue tresh-hold
   EBREAK =  0.50E-07  absolut break condition
   DEPER  =   0.30     relativ break condition  

   TIME   =   0.40     timestep for ELM

  volume/ion in A,a.u.               =     203.27      1371.73
  Fermi-wavevector in a.u.,A,eV,Ry     =   0.278431  0.526158  1.054773  0.077524
  Thomas-Fermi vector in A             =   1.125155
 
 Write flags
   LWAVE        =      T    write WAVECAR
   LDOWNSAMPLE  =      F    k-point downsampling of WAVECAR
   LCHARG       =      T    write CHGCAR
   LVTOT        =      F    write LOCPOT, total local potential
   LVHAR        =      F    write LOCPOT, Hartree potential only
   LELF         =      F    write electronic localiz. function (ELF)
   LORBIT       =      0    0 simple, 1 ext, 2 COOP (PROOUT), +10 PAW based schemes


 Dipole corrections
   LMONO  =      F    monopole corrections only (constant potential shift)
   LDIPOL =      F    correct potential (dipole corrections)
   IDIPOL =      0    1-x, 2-y, 3-z, 4-all directions 
   EPSILON=  1.0000000 bulk dielectric constant

 Exchange correlation treatment:
   GGA     =    --    GGA type
   LEXCH   =     8    internal setting for exchange type
   LIBXC   =     F    Libxc                    
   VOSKOWN =     0    Vosko Wilk Nusair interpolation
   LHFCALC =     F    Hartree Fock is set to
   LHFONE  =     F    Hartree Fock one center treatment
   AEXX    =    0.0000 exact exchange contribution

 Linear response parameters
   LEPSILON=     F    determine dielectric tensor
   LRPA    =     F    only Hartree local field effects (RPA)
   LNABLA  =     F    use nabla operator in PAW spheres
   LVEL    =     F    velocity operator in full k-point grid
   CSHIFT  =0.1000    complex shift for real part using Kramers Kronig
   OMEGAMAX=  -1.0    maximum frequency
   DEG_THRESHOLD= 0.2000000E-02 threshold for treating states as degnerate
   RTIME   =   -0.100 relaxation time in fs
  (WPLASMAI=    0.000 imaginary part of plasma frequency in eV, 0.658/RTIME)
   DFIELD  = 0.0000000 0.0000000 0.0000000 field for delta impulse in time
 
  Optional k-point grid parameters
   LKPOINTS_OPT  =     F    use optional k-point grid
   KPOINTS_OPT_MODE=     1    mode for optional k-point grid
 
 Orbital magnetization related:
   ORBITALMAG=     F  switch on orbital magnetization
   LCHIMAG   =     F  perturbation theory with respect to B field
   DQ        =  0.001000  dq finite difference perturbation B field
   LLRAUG    =     F  two centre corrections for induced B field



--------------------------------------------------------------------------------------------------------


 Static calculation
 charge density and potential will be updated during run
 non-spin polarized calculation
 Variant of blocked Davidson
 Davidson routine will perform the subspace rotation
 perform sub-space diagonalisation
    after iterative eigenvector-optimisation
 modified Broyden-mixing scheme, WC =      100.0
 initial mixing is a Kerker type mixing with AMIX =  0.4000 and BMIX =      1.0000
 Hartree-type preconditioning will be used
 using additional bands            4
 reciprocal scheme for non local part
 use partial core corrections
 calculate Harris-corrections to forces 
   (improved forces if not selfconsistent)
 use gradient corrections 
 use of overlap-Matrix (Vanderbilt PP)
 Methfessel and Paxton  Order N= 1 SIGMA  =   0.20


--------------------------------------------------------------------------------------------------------


  energy-cutoff  :      400.00
  volume of cell :      406.54
      direct lattice vectors                 reciprocal lattice vectors
     7.408002056  0.000000000  0.000000000     0.134989163  0.000000000  0.000000000
     0.000000000  7.408002056  0.000000000     0.000000000  0.134989163  0.000000000
     0.000000000  0.000000000  7.408002056     0.000000000  0.000000000  0.134989163

  length of vectors
     7.408002056  7.408002056  7.408002056     0.134989163  0.134989163  0.134989163


 
 k-points in units of 2pi/SCALE and weight: Automatically generated mesh            
   0.00000000  0.00000000  0.00000000       1.000
 
 k-points in reciprocal lattice and weights: Automatically generated mesh            
   0.00000000  0.00000000  0.00000000       1.000
 
 position of ions in fractional coordinates (direct lattice) 
   0.00000000  0.00000000  0.00000000
   0.00000000  0.00000000  0.21882593
 
 position of ions in cartesian coordinates  (Angst):
   0.00000000  0.00000000  0.00000000
   0.00000000  0.00000000  1.62106295
 


--------------------------------------------------------------------------------------------------------


 use serial FFT for orbitals x direction half grid
 k-point   1 :   0.0000 0.0000 0.0000  plane waves:    3625

 maximum and minimum number of plane-waves per node :      3625     3625

 maximum number of plane-waves:      3625
 maximum index in each direction: 
   IXMAX=   12   IYMAX=   12   IZMAX=   12
   IXMIN=    0   IYMIN=  -12   IZMIN=  -12


 serial   3D FFT for wavefunctions
 parallel 3D FFT for charge:
    minimum data exchange during FFTs selected (reduces bandwidth)


 total amount of memory used by VASP MPI-rank0   116648. kBytes
=======================================================================

   base      :      30000. kBytes
   nonl-proj :        870. kBytes
   fftplans  :      30736. kBytes
   grid      :      54743. kBytes
   one-center:          8. kBytes
   wavefun   :        291. kBytes
 
     INWAV:  cpu time      0.0000: real time      0.0000
 Broyden mixing: mesh for mixing (old mesh)
   NGX = 25   NGY = 25   NGZ = 25
  (NGX  = 96   NGY  = 96   NGZ  = 96)
  gives a total of  15625 points

 initial charge density was supplied:
 charge density of overlapping atoms calculated
 number of electron       2.0000000 magnetization 
 keeping initial charge density in first step


--------------------------------------------------------------------------------------------------------


 Maximum index for augmentation-charges        10251 (set IRDMAX)


--------------------------------------------------------------------------------------------------------


 First call to EWALD:  gamma=   0.239
 Maximum number of real-space cells 3x 3x 3
 Maximum number of reciprocal cells 3x 3x 3

    FEWALD:  cpu time      0.0011: real time      0.0011


--------------------------------------- Iteration      1(   1)  ---------------------------------------


    POTLOK:  cpu time      0.2820: real time      0.2829
    SETDIJ:  cpu time      0.0033: real time      0.0033
     EDDAV:  cpu time      0.0281: real time      0.0282
       DOS:  cpu time      0.0001: real time      0.0001
    --------------------------------------------
      LOOP:  cpu time      0.3135: real time      0.3146

 eigenvalue-minimisations  :    10
 total energy-change (2. order) :-0.1407669E+01  (-0.3870775E+02)
 number of electron       2.0000000 magnetization 
 augmentation part        2.0000000 magnetization 

 Free energy of the ion-electron system (eV)
  ---------------------------------------------------
  alpha Z        PSCENC =         0.21989830
  Ewald energy   TEWEN  =        -1.93848068
  -Hartree energ DENC   =        -7.79833243
  -exchange      EXHF   =         0.00000000
  -V(xc)+E(xc)   XCENC  =        -2.76633846
  PAW double counting   =         9.79557496       -4.24713221
  entropy T*S    EENTRO =         0.01159581
  eigenvalues    EBANDS =       -12.44125049
  atomic energy  EATOM  =        17.75679653
  Solvation  Ediel_sol  =         0.00000000
  ---------------------------------------------------
  free energy    TOTEN  =        -1.40766867 eV

  energy without entropy =       -1.41926448  energy(sigma->0) =       -1.41153394


--------------------------------------------------------------------------------------------------------




--------------------------------------- Iteration      1(   2)  ---------------------------------------


     EDDAV:  cpu time      0.0232: real time      0.0234
       DOS:  cpu time      0.0001: real time      0.0001
    --------------------------------------------
      LOOP:  cpu time      0.0233: real time      0.0235

 eigenvalue-minimisations  :    10
 total energy-change (2. order) :-0.3956951E+01  (-0.3956951E+01)
 number of electron       2.0000000 magnetization 
 augmentation part        2.0000000 magnetization 

 Free energy of the ion-electron system (eV)
  ---------------------------------------------------
  alpha Z        PSCENC =         0.21989830
  Ewald energy   TEWEN  =        -1.93848068
  -Hartree energ DENC   =        -7.79833243
  -exchange      EXHF   =         0.00000000
  -V(xc)+E(xc)   XCENC  =        -2.76633846
  PAW double counting   =         9.79557496       -4.24713221
  entropy T*S    EENTRO =         0.01159581
  eigenvalues    EBANDS =       -16.39820151
  atomic energy  EATOM  =        17.75679653
  Solvation  Ediel_sol  =         0.00000000
  ---------------------------------------------------
  free energy    TOTEN  =        -5.36461969 eV

  energy without entropy =       -5.37621550  energy(sigma->0) =       -5.36848496


--------------------------------------------------------------------------------------------------------




--------------------------------------- Iteration      1(   3)  ---------------------------------------


     EDDAV:  cpu time      0.0386: real time      0.0388
       DOS:  cpu time      0.0001: real time      0.0001
    --------------------------------------------
      LOOP:  cpu time      0.0387: real time      0.0389

 eigenvalue-minimisations  :    20
 total energy-change (2. order) :-0.1723502E+00  (-0.1723502E+00)
 number of electron       2.0000000 magnetization 
 augmentation part        2.0000000 magnetization 

 Free energy of the ion-electron system (eV)
  ---------------------------------------------------
  alpha Z        PSCENC =         0.21989830
  Ewald energy   TEWEN  =        -1.93848068
  -Hartree energ DENC   =        -7.79833243
  -exchange      EXHF   =         0.00000000
  -V(xc)+E(xc)   XCENC  =        -2.76633846
  PAW double counting   =         9.79557496       -4.24713221
  entropy T*S    EENTRO =         0.01159581
  eigenvalues    EBANDS =       -16.57055175
  atomic energy  EATOM  =        17.75679653
  Solvation  Ediel_sol  =         0.00000000
  ---------------------------------------------------
  free energy    TOTEN  =        -5.53696993 eV

  energy without entropy =       -5.54856574  energy(sigma->0) =       -5.54083520


--------------------------------------------------------------------------------------------------------




--------------------------------------- Iteration      1(   4)  ---------------------------------------


     EDDAV:  cpu time      0.0231: real time      0.0232
       DOS:  cpu time      0.0001: real time      0.0001
    --------------------------------------------
      LOOP:  cpu time      0.0231: real time      0.0233

 eigenvalue-minimisations  :    10
 total energy-change (2. order) :-0.4056005E-04  (-0.4056098E-04)
 number of electron       2.0000000 magnetization 
 augmentation part        2.0000000 magnetization 

 Free energy of the ion-electron system (eV)
  ---------------------------------------------------
  alpha Z        PSCENC =         0.21989830
  Ewald energy   TEWEN  =        -1.93848068
  -Hartree energ DENC   =        -7.79833243
  -exchange      EXHF   =         0.00000000
  -V(xc)+E(xc)   XCENC  =        -2.76633846
  PAW double counting   =         9.79557496       -4.24713221
  entropy T*S    EENTRO =         0.01159581
  eigenvalues    EBANDS =       -16.57059231
  atomic energy  EATOM  =        17.75679653
  Solvation  Ediel_sol  =         0.00000000
  ---------------------------------------------------
  free energy    TOTEN  =        -5.53701049 eV

  energy without entropy =       -5.54860630  energy(sigma->0) =       -5.54087576


--------------------------------------------------------------------------------------------------------




--------------------------------------- Iteration      1(   5)  ---------------------------------------


     EDDAV:  cpu time      0.0231: real time      0.0232
       DOS:  cpu time      0.0001: real time      0.0001
    CHARGE:  cpu time      0.0157: real time      0.0158
    MIXING:  cpu time      0.0102: real time      0.0102
    --------------------------------------------
      LOOP:  cpu time      0.0490: real time      0.0492

 eigenvalue-minimisations  :    10
 total energy-change (2. order) :-0.2511908E-06  (-0.2501473E-06)
 number of electron       1.9999999 magnetization 
 augmentation part        0.0193236 magnetization 

 Broyden mixing:
  rms(total) = 0.46351E+00    rms(broyden)= 0.46350E+00
  rms(prec ) = 0.91585E+00
  weight for this iteration     100.00

 Free energy of the ion-electron system (eV)
  ---------------------------------------------------
  alpha Z        PSCENC =         0.21989830
  Ewald energy   TEWEN  =        -1.93848068
  -Hartree energ DENC   =        -7.79833243
  -exchange      EXHF   =         0.00000000
  -V(xc)+E(xc)   XCENC  =        -2.76633846
  PAW double counting   =         9.79557496       -4.24713221
  entropy T*S    EENTRO =         0.01159581
  eigenvalues    EBANDS =       -16.57059256
  atomic energy  EATOM  =        17.75679653
  Solvation  Ediel_sol  =         0.00000000
  ---------------------------------------------------
  free energy    TOTEN  =        -5.53701074 eV

  energy without entropy =       -5.54860655  energy(sigma->0) =       -5.54087601


--------------------------------------------------------------------------------------------------------




--------------------------------------- Iteration      1(   6)  ---------------------------------------


    POTLOK:  cpu time      0.2805: real time      0.2814
    SETDIJ:  cpu time      0.0033: real time      0.0033
     EDDAV:  cpu time      0.0248: real time      0.0249
       DOS:  cpu time      0.0001: real time      0.0001
    CHARGE:  cpu time      0.0143: real time      0.0146
    MIXING:  cpu time      0.0102: real time      0.0103
    --------------------------------------------
      LOOP:  cpu time      0.3332: real time      0.3346

 eigenvalue-minimisations  :    10
 total energy-change (2. order) : 0.1233775E+01  (-0.1207048E+00)
 number of electron       1.9999999 magnetization 
 augmentation part        0.0175397 magnetization 

 Broyden mixing:
  rms(total) = 0.21408E+00    rms(broyden)= 0.21407E+00
  rms(prec ) = 0.50350E+00
  weight for this iteration     100.00

 eigenvalues of (default mixing * dielectric matrix)
  average eigenvalue GAMMA=   1.6450
  1.6450

 Free energy of the ion-electron system (eV)
  ---------------------------------------------------
  alpha Z        PSCENC =         0.21989830
  Ewald energy   TEWEN  =        -1.93848068
  -Hartree energ DENC   =       -10.65516810
  -exchange      EXHF   =         0.00000000
  -V(xc)+E(xc)   XCENC  =        -2.29520167
  PAW double counting   =        13.28639476       -7.74583606
  entropy T*S    EENTRO =         0.01159581
  eigenvalues    EBANDS =       -12.94323449
  atomic energy  EATOM  =        17.75679653
  Solvation  Ediel_sol  =         0.00000000
  ---------------------------------------------------
  free energy    TOTEN  =        -4.30323560 eV

  energy without entropy =       -4.31483141  energy(sigma->0) =       -4.30710087


--------------------------------------------------------------------------------------------------------




--------------------------------------- Iteration      1(   7)  ---------------------------------------


    POTLOK:  cpu time      0.2703: real time      0.2727
    SETDIJ:  cpu time      0.0033: real time      0.0033
     EDDAV:  cpu time      0.0248: real time      0.0249
       DOS:  cpu time      0.0001: real time      0.0001
    CHARGE:  cpu time      0.0162: real time      0.0163
    MIXING:  cpu time      0.0102: real time      0.0103
    --------------------------------------------
      LOOP:  cpu time      0.3249: real time      0.3276

 eigenvalue-minimisations  :    10
 total energy-change (2. order) : 0.5235685E+00  (-0.1823755E+00)
 number of electron       1.9999999 magnetization 
 augmentation part        0.0150328 magnetization 

 Broyden mixing:
  rms(total) = 0.10570E+00    rms(broyden)= 0.10566E+00
  rms(prec ) = 0.19316E+00
  weight for this iteration     100.00

 eigenvalues of (default mixing * dielectric matrix)
  average eigenvalue GAMMA=   2.0124
  2.0124  2.0124

 Free energy of the ion-electron system (eV)
  ---------------------------------------------------
  alpha Z        PSCENC =         0.21989830
  Ewald energy   TEWEN  =        -1.93848068
  -Hartree energ DENC   =       -14.31089388
  -exchange      EXHF   =         0.00000000
  -V(xc)+E(xc)   XCENC  =        -1.74766778
  PAW double counting   =        18.38721535      -12.85357215
  entropy T*S    EENTRO =         0.01159581
  eigenvalues    EBANDS =        -9.30455864
  atomic energy  EATOM  =        17.75679653
  Solvation  Ediel_sol  =         0.00000000
  ---------------------------------------------------
  free energy    TOTEN  =        -3.77966714 eV

  energy without entropy =       -3.79126295  energy(sigma->0) =       -3.78353241


--------------------------------------------------------------------------------------------------------




--------------------------------------- Iteration      1(   8)  ---------------------------------------


    POTLOK:  cpu time      0.2668: real time      0.2678
    SETDIJ:  cpu time      0.0033: real time      0.0033
     EDDAV:  cpu time      0.0248: real time      0.0249
       DOS:  cpu time      0.0001: real time      0.0001
    CHARGE:  cpu time      0.0163: real time      0.0164
    MIXING:  cpu time      0.0104: real time      0.0105
    --------------------------------------------
      LOOP:  cpu time      0.3218: real time      0.3230

 eigenvalue-minimisations  :    10
 total energy-change (2. order) :-0.8858826E-01  (-0.2589395E-01)
 number of electron       1.9999999 magnetization 
 augmentation part        0.0157153 magnetization 

 Broyden mixing:
  rms(total) = 0.75884E-01    rms(broyden)= 0.75884E-01
  rms(prec ) = 0.17471E+00
  weight for this iteration     100.00

 eigenvalues of (default mixing * dielectric matrix)
  average eigenvalue GAMMA=   2.0898
  3.5814  1.3440  1.3440

 Free energy of the ion-electron system (eV)
  ---------------------------------------------------
  alpha Z        PSCENC =         0.21989830
  Ewald energy   TEWEN  =        -1.93848068
  -Hartree energ DENC   =       -13.36787166
  -exchange      EXHF   =         0.00000000
  -V(xc)+E(xc)   XCENC  =        -1.95050360
  PAW double counting   =        16.45856642      -10.91845540
  entropy T*S    EENTRO =         0.01159581
  eigenvalues    EBANDS =       -10.13980113
  atomic energy  EATOM  =        17.75679653
  Solvation  Ediel_sol  =         0.00000000
  ---------------------------------------------------
  free energy    TOTEN  =        -3.86825541 eV

  energy without entropy =       -3.87985122  energy(sigma->0) =       -3.87212068


--------------------------------------------------------------------------------------------------------




--------------------------------------- Iteration      1(   9)  ---------------------------------------


    POTLOK:  cpu time      0.2686: real time      0.2694
    SETDIJ:  cpu time      0.0036: real time      0.0036
     EDDAV:  cpu time      0.0252: real time      0.0253
       DOS:  cpu time      0.0001: real time      0.0001
    CHARGE:  cpu time      0.0175: real time      0.0175
    MIXING:  cpu time      0.0110: real time      0.0111
    --------------------------------------------
      LOOP:  cpu time      0.3260: real time      0.3271

 eigenvalue-minimisations  :    10
 total energy-change (2. order) : 0.4496704E-01  (-0.3789284E-01)
 number of electron       1.9999999 magnetization 
 augmentation part        0.0147014 magnetization 

 Broyden mixing:
  rms(total) = 0.32731E-01    rms(broyden)= 0.32722E-01
  rms(prec ) = 0.67255E-01
  weight for this iteration     100.00

 eigenvalues of (default mixing * dielectric matrix)
  average eigenvalue GAMMA=   2.1057
  3.6571  1.9775  1.9775  0.8109

 Free energy of the ion-electron system (eV)
  ---------------------------------------------------
  alpha Z        PSCENC =         0.21989830
  Ewald energy   TEWEN  =        -1.93848068
  -Hartree energ DENC   =       -15.19455687
  -exchange      EXHF   =         0.00000000
  -V(xc)+E(xc)   XCENC  =        -1.68678529
  PAW double counting   =        18.39555315      -12.85684682
  entropy T*S    EENTRO =         0.01159581
  eigenvalues    EBANDS =        -8.53046250
  atomic energy  EATOM  =        17.75679653
  Solvation  Ediel_sol  =         0.00000000
  ---------------------------------------------------
  free energy    TOTEN  =        -3.82328836 eV

  energy without entropy =       -3.83488418  energy(sigma->0) =       -3.82715363


--------------------------------------------------------------------------------------------------------




--------------------------------------- Iteration      1(  10)  ---------------------------------------


    POTLOK:  cpu time      0.2681: real time      0.2692
    SETDIJ:  cpu time      0.0033: real time      0.0033
     EDDAV:  cpu time      0.0248: real time      0.0249
       DOS:  cpu time      0.0001: real time      0.0001
    CHARGE:  cpu time      0.0163: real time      0.0164
    MIXING:  cpu time      0.0109: real time      0.0109
    --------------------------------------------
      LOOP:  cpu time      0.3235: real time      0.3248

 eigenvalue-minimisations  :    10
 total energy-change (2. order) :-0.3457570E-01  (-0.2465786E-02)
 number of electron       1.9999999 magnetization 
 augmentation part        0.0147644 magnetization 

 Broyden mixing:
  rms(total) = 0.24770E-01    rms(broyden)= 0.24769E-01
  rms(prec ) = 0.40160E-01
  weight for this iteration     100.00

 eigenvalues of (default mixing * dielectric matrix)
  average eigenvalue GAMMA=   2.0424
  4.1393  2.3885  1.8215  0.9313  0.9313

 Free energy of the ion-electron system (eV)
  ---------------------------------------------------
  alpha Z        PSCENC =         0.21989830
  Ewald energy   TEWEN  =        -1.93848068
  -Hartree energ DENC   =       -14.88728591
  -exchange      EXHF   =         0.00000000
  -V(xc)+E(xc)   XCENC  =        -1.75931799
  PAW double counting   =        17.17208831      -11.63344005
  entropy T*S    EENTRO =         0.01159581
  eigenvalues    EBANDS =        -8.79971837
  atomic energy  EATOM  =        17.75679653
  Solvation  Ediel_sol  =         0.00000000
  ---------------------------------------------------
  free energy    TOTEN  =        -3.85786406 eV

  energy without entropy =       -3.86945987  energy(sigma->0) =       -3.86172933


--------------------------------------------------------------------------------------------------------




--------------------------------------- Iteration      1(  11)  ---------------------------------------


    POTLOK:  cpu time      0.2692: real time      0.2700
    SETDIJ:  cpu time      0.0033: real time      0.0033
     EDDAV:  cpu time      0.0324: real time      0.0325
       DOS:  cpu time      0.0001: real time      0.0001
    CHARGE:  cpu time      0.0162: real time      0.0163
    MIXING:  cpu time      0.0110: real time      0.0111
    --------------------------------------------
      LOOP:  cpu time      0.3322: real time      0.3334

 eigenvalue-minimisations  :    15
 total energy-change (2. order) :-0.1364524E-02  (-0.8549500E-03)
 number of electron       1.9999999 magnetization 
 augmentation part        0.0149191 magnetization 

 Broyden mixing:
  rms(total) = 0.48037E-02    rms(broyden)= 0.48025E-02
  rms(prec ) = 0.10640E-01
  weight for this iteration     100.00

 eigenvalues of (default mixing * dielectric matrix)
  average eigenvalue GAMMA=   2.4437
  5.2752  2.9101  2.9101  0.9566  0.9566  1.6537

 Free energy of the ion-electron system (eV)
  ---------------------------------------------------
  alpha Z        PSCENC =         0.21989830
  Ewald energy   TEWEN  =        -1.93848068
  -Hartree energ DENC   =       -14.71645614
  -exchange      EXHF   =         0.00000000
  -V(xc)+E(xc)   XCENC  =        -1.78696951
  PAW double counting   =        17.02707994      -11.48775759
  entropy T*S    EENTRO =         0.01159581
  eigenvalues    EBANDS =        -8.94493524
  atomic energy  EATOM  =        17.75679653
  Solvation  Ediel_sol  =         0.00000000
  ---------------------------------------------------
  free energy    TOTEN  =        -3.85922859 eV

  energy without entropy =       -3.87082440  energy(sigma->0) =       -3.86309386


--------------------------------------------------------------------------------------------------------




--------------------------------------- Iteration      1(  12)  ---------------------------------------


    POTLOK:  cpu time      0.2794: real time      0.2803
    SETDIJ:  cpu time      0.0033: real time      0.0033
     EDDAV:  cpu time      0.0248: real time      0.0250
       DOS:  cpu time      0.0001: real time      0.0001
    CHARGE:  cpu time      0.0163: real time      0.0163
    MIXING:  cpu time      0.0111: real time      0.0111
    --------------------------------------------
      LOOP:  cpu time      0.3350: real time      0.3362

 eigenvalue-minimisations  :    10
 total energy-change (2. order) :-0.7069884E-02  (-0.5491972E-03)
 number of electron       1.9999999 magnetization 
 augmentation part        0.0148580 magnetization 

 Broyden mixing:
  rms(total) = 0.50024E-02    rms(broyden)= 0.50024E-02
  rms(prec ) = 0.10378E-01
  weight for this iteration     100.00

 eigenvalues of (default mixing * dielectric matrix)
  average eigenvalue GAMMA=   2.2480
  4.9010  3.9794  2.0339  1.9091  0.8861  1.0132  1.0132

 Free energy of the ion-electron system (eV)
  ---------------------------------------------------
  alpha Z        PSCENC =         0.21989830
  Ewald energy   TEWEN  =        -1.93848068
  -Hartree energ DENC   =       -14.78261773
  -exchange      EXHF   =         0.00000000
  -V(xc)+E(xc)   XCENC  =        -1.78039567
  PAW double counting   =        17.39189619      -11.85287121
  entropy T*S    EENTRO =         0.01159581
  eigenvalues    EBANDS =        -8.89212001
  atomic energy  EATOM  =        17.75679653
  Solvation  Ediel_sol  =         0.00000000
  ---------------------------------------------------
  free energy    TOTEN  =        -3.86629847 eV

  energy without entropy =       -3.87789428  energy(sigma->0) =       -3.87016374


--------------------------------------------------------------------------------------------------------




--------------------------------------- Iteration      1(  13)  ---------------------------------------


    POTLOK:  cpu time      0.2803: real time      0.2814
    SETDIJ:  cpu time      0.0033: real time      0.0033
     EDDAV:  cpu time      0.0248: real time      0.0249
       DOS:  cpu time      0.0001: real time      0.0001
    CHARGE:  cpu time      0.0162: real time      0.0163
    MIXING:  cpu time      0.0114: real time      0.0115
    --------------------------------------------
      LOOP:  cpu time      0.3361: real time      0.3375

 eigenvalue-minimisations  :    10
 total energy-change (2. order) :-0.3294253E-03  (-0.1002027E-03)
 number of electron       1.9999999 magnetization 
 augmentation part        0.0149062 magnetization 

 Broyden mixing:
  rms(total) = 0.11033E-02    rms(broyden)= 0.11029E-02
  rms(prec ) = 0.24322E-02
  weight for this iteration     100.00

 eigenvalues of (default mixing * dielectric matrix)
  average eigenvalue GAMMA=   2.5497
  5.6461  3.8752  3.8752  2.3564  1.7271  0.9705  0.9734  0.9734

 Free energy of the ion-electron system (eV)
  ---------------------------------------------------
  alpha Z        PSCENC =         0.21989830
  Ewald energy   TEWEN  =        -1.93848068
  -Hartree energ DENC   =       -14.69087053
  -exchange      EXHF   =         0.00000000
  -V(xc)+E(xc)   XCENC  =        -1.79464236
  PAW double counting   =        17.26876439      -11.72960717
  entropy T*S    EENTRO =         0.01159581
  eigenvalues    EBANDS =        -8.97008219
  atomic energy  EATOM  =        17.75679653
  Solvation  Ediel_sol  =         0.00000000
  ---------------------------------------------------
  free energy    TOTEN  =        -3.86662790 eV

  energy without entropy =       -3.87822371  energy(sigma->0) =       -3.87049317


--------------------------------------------------------------------------------------------------------




--------------------------------------- Iteration      1(  14)  ---------------------------------------


    POTLOK:  cpu time      0.2818: real time      0.2828
    SETDIJ:  cpu time      0.0033: real time      0.0033
     EDDAV:  cpu time      0.0247: real time      0.0248
       DOS:  cpu time      0.0001: real time      0.0001
    CHARGE:  cpu time      0.0162: real time      0.0163
    MIXING:  cpu time      0.0116: real time      0.0116
    --------------------------------------------
      LOOP:  cpu time      0.3377: real time      0.3389

 eigenvalue-minimisations  :    10
 total energy-change (2. order) :-0.4101097E-03  (-0.2408872E-04)
 number of electron       1.9999999 magnetization 
 augmentation part        0.0149044 magnetization 

 Broyden mixing:
  rms(total) = 0.68917E-03    rms(broyden)= 0.68912E-03
  rms(prec ) = 0.11997E-02
  weight for this iteration     100.00

 eigenvalues of (default mixing * dielectric matrix)
  average eigenvalue GAMMA=   2.3449
  6.0582  3.7086  3.7086  2.2166  1.7470  0.9925  0.9925  0.8916  0.7881

 Free energy of the ion-electron system (eV)
  ---------------------------------------------------
  alpha Z        PSCENC =         0.21989830
  Ewald energy   TEWEN  =        -1.93848068
  -Hartree energ DENC   =       -14.69663553
  -exchange      EXHF   =         0.00000000
  -V(xc)+E(xc)   XCENC  =        -1.79364262
  PAW double counting   =        17.22587046      -11.68661037
  entropy T*S    EENTRO =         0.01159581
  eigenvalues    EBANDS =        -8.96582991
  atomic energy  EATOM  =        17.75679653
  Solvation  Ediel_sol  =         0.00000000
  ---------------------------------------------------
  free energy    TOTEN  =        -3.86703800 eV

  energy without entropy =       -3.87863382  energy(sigma->0) =       -3.87090328


--------------------------------------------------------------------------------------------------------




--------------------------------------- Iteration      1(  15)  ---------------------------------------


    POTLOK:  cpu time      0.2819: real time      0.2828
    SETDIJ:  cpu time      0.0033: real time      0.0033
     EDDAV:  cpu time      0.0256: real time      0.0258
       DOS:  cpu time      0.0001: real time      0.0001
    CHARGE:  cpu time      0.0162: real time      0.0163
    MIXING:  cpu time      0.0120: real time      0.0123
    --------------------------------------------
      LOOP:  cpu time      0.3392: real time      0.3405

 eigenvalue-minimisations  :    10
 total energy-change (2. order) :-0.1782610E-04  (-0.1465262E-05)
 number of electron       1.9999999 magnetization 
 augmentation part        0.0148990 magnetization 

 Broyden mixing:
  rms(total) = 0.69281E-03    rms(broyden)= 0.69280E-03
  rms(prec ) = 0.14907E-02
  weight for this iteration     100.00

 eigenvalues of (default mixing * dielectric matrix)
  average eigenvalue GAMMA=   2.5425
  6.2495  4.0830  4.0830  3.0388  2.3636  1.7176  0.9862  0.9862  0.9584  0.9584

 Free energy of the ion-electron system (eV)
  ---------------------------------------------------
  alpha Z        PSCENC =         0.21989830
  Ewald energy   TEWEN  =        -1.93848068
  -Hartree energ DENC   =       -14.70310332
  -exchange      EXHF   =         0.00000000
  -V(xc)+E(xc)   XCENC  =        -1.79272375
  PAW double counting   =        17.24578783      -11.70655915
  entropy T*S    EENTRO =         0.01159581
  eigenvalues    EBANDS =        -8.96026740
  atomic energy  EATOM  =        17.75679653
  Solvation  Ediel_sol  =         0.00000000
  ---------------------------------------------------
  free energy    TOTEN  =        -3.86705583 eV

  energy without entropy =       -3.87865164  energy(sigma->0) =       -3.87092110


--------------------------------------------------------------------------------------------------------




--------------------------------------- Iteration      1(  16)  ---------------------------------------


    POTLOK:  cpu time      0.2800: real time      0.2809
    SETDIJ:  cpu time      0.0033: real time      0.0033
     EDDAV:  cpu time      0.0247: real time      0.0248
       DOS:  cpu time      0.0001: real time      0.0001
    CHARGE:  cpu time      0.0163: real time      0.0163
    MIXING:  cpu time      0.0122: real time      0.0123
    --------------------------------------------
      LOOP:  cpu time      0.3366: real time      0.3377

 eigenvalue-minimisations  :    10
 total energy-change (2. order) :-0.1076931E-04  (-0.2126405E-05)
 number of electron       1.9999999 magnetization 
 augmentation part        0.0149059 magnetization 

 Broyden mixing:
  rms(total) = 0.15023E-03    rms(broyden)= 0.15016E-03
  rms(prec ) = 0.24061E-03
  weight for this iteration     100.00

 eigenvalues of (default mixing * dielectric matrix)
  average eigenvalue GAMMA=   2.3962
  6.1759  4.4241  4.0200  2.5709  2.5709  1.6948  1.0149  1.0149  0.8997  0.9859
  0.9859

 Free energy of the ion-electron system (eV)
  ---------------------------------------------------
  alpha Z        PSCENC =         0.21989830
  Ewald energy   TEWEN  =        -1.93848068
  -Hartree energ DENC   =       -14.68949949
  -exchange      EXHF   =         0.00000000
  -V(xc)+E(xc)   XCENC  =        -1.79473830
  PAW double counting   =        17.22639817      -11.68720920
  entropy T*S    EENTRO =         0.01159581
  eigenvalues    EBANDS =        -8.97182773
  atomic energy  EATOM  =        17.75679653
  Solvation  Ediel_sol  =         0.00000000
  ---------------------------------------------------
  free energy    TOTEN  =        -3.86706660 eV

  energy without entropy =       -3.87866241  energy(sigma->0) =       -3.87093187


--------------------------------------------------------------------------------------------------------




--------------------------------------- Iteration      1(  17)  ---------------------------------------


    POTLOK:  cpu time      0.2803: real time      0.2813
    SETDIJ:  cpu time      0.0033: real time      0.0033
     EDDAV:  cpu time      0.0326: real time      0.0328
       DOS:  cpu time      0.0001: real time      0.0001
    --------------------------------------------
      LOOP:  cpu time      0.3163: real time      0.3174

 eigenvalue-minimisations  :    15
 total energy-change (2. order) :-0.1838772E-06  (-0.6188422E-07)
 number of electron       1.9999999 magnetization 
 augmentation part        0.0149059 magnetization 

 Free energy of the ion-electron system (eV)
  ---------------------------------------------------
  alpha Z        PSCENC =         0.21989830
  Ewald energy   TEWEN  =        -1.93848068
  -Hartree energ DENC   =       -14.69062911
  -exchange      EXHF   =         0.00000000
  -V(xc)+E(xc)   XCENC  =        -1.79455268
  PAW double counting   =        17.22949204      -11.69030266
  entropy T*S    EENTRO =         0.01159581
  eigenvalues    EBANDS =        -8.97088434
  atomic energy  EATOM  =        17.75679653
  Solvation  Ediel_sol  =         0.00000000
  ---------------------------------------------------
  free energy    TOTEN  =        -3.86706678 eV

  energy without entropy =       -3.87866259  energy(sigma->0) =       -3.87093205


--------------------------------------------------------------------------------------------------------




 average (electrostatic) potential at core
  the test charge radii are     1.0393  0.5883
  (the norm of the test charge is              1.0000)
       1 -10.2455       2 -34.5267
 
 
 
 E-fermi :  -4.3171     XC(G=0):  -1.6568     alpha+bet : -0.3321

 Fermi energy:        -4.3170657244

 k-point     1 :       0.0000    0.0000    0.0000
  band No.  band energies     occupation 
      1      -4.4854      2.00000
      2      -1.5097     -0.00000
      3       0.1399     -0.00000
      4       0.1399     -0.00000
      5       0.5156     -0.00000


--------------------------------------------------------------------------------------------------------


 soft charge-density along one line, spin component           1
         0         1         2         3         4         5         6         7         8         9
 total charge-density along one line
 
 pseudopotential strength for first ion, spin component:           1
  0.651  -3.346   0.000  -0.031   0.000  -0.000   0.094  -0.000
 -3.346  18.641  -0.000   0.097  -0.000   0.000  -0.389   0.000
  0.000  -0.000  -4.018  -0.000  -0.000   7.233   0.000  -0.000
 -0.031   0.097  -0.000  -4.017  -0.000   0.000   7.223   0.000
  0.000  -0.000  -0.000  -0.000  -4.018  -0.000   0.000   7.233
 -0.000   0.000   7.233   0.000  -0.000 -39.216  -0.000   0.000
  0.094  -0.389   0.000   7.223   0.000  -0.000 -39.212  -0.000
 -0.000   0.000  -0.000   0.000   7.233   0.000  -0.000 -39.216
  0.000  -0.000   0.000  -0.000   0.000  -0.000  -0.000  -0.000
  0.000  -0.000  -0.002   0.000  -0.000   0.020  -0.000  -0.000
 -0.001   0.002  -0.000  -0.003  -0.000   0.000   0.019   0.000
 -0.000   0.000  -0.000   0.000  -0.002  -0.000  -0.000   0.020
  0.000  -0.000  -0.000  -0.000   0.000   0.000  -0.000  -0.000
 total augmentation occupancy for first ion, spin component:           1
  1.055   0.010   0.000   0.379   0.000   0.000   0.009   0.000   0.000   0.000   0.144   0.000  -0.000
  0.010   0.000   0.000   0.004   0.000   0.000   0.000   0.000   0.000   0.000   0.001   0.000  -0.000
  0.000   0.000   0.000   0.000   0.000   0.000   0.000   0.000   0.000   0.000   0.000   0.000  -0.000
  0.379   0.004   0.000   0.136   0.000   0.000   0.003   0.000   0.000   0.000   0.052   0.000  -0.000
  0.000   0.000   0.000   0.000   0.000   0.000   0.000   0.000   0.000   0.000   0.000   0.000  -0.000
  0.000   0.000   0.000   0.000   0.000   0.000   0.000   0.000   0.000   0.000   0.000   0.000  -0.000
  0.009   0.000   0.000   0.003   0.000   0.000   0.000   0.000   0.000   0.000   0.001   0.000  -0.000
  0.000   0.000   0.000   0.000   0.000   0.000   0.000   0.000   0.000   0.000   0.000   0.000  -0.000
  0.000   0.000   0.000   0.000   0.000   0.000   0.000   0.000   0.000   0.000   0.000   0.000  -0.000
  0.000   0.000   0.000   0.000   0.000   0.000   0.000   0.000   0.000   0.000   0.000   0.000  -0.000
  0.144   0.001   0.000   0.052   0.000   0.000   0.001   0.000   0.000   0.000   0.020   0.000  -0.000
  0.000   0.000   0.000   0.000   0.000   0.000   0.000   0.000   0.000   0.000   0.000   0.000  -0.000
 -0.000  -0.000  -0.000  -0.000  -0.000  -0.000  -0.000  -0.000  -0.000  -0.000  -0.000  -0.000   0.000


------------------------ aborting loop because EDIFF is reached ----------------------------------------


    CHARGE:  cpu time      0.0161: real time      0.0162
    FORLOC:  cpu time      0.0228: real time      0.0229
    FORNL :  cpu time      0.0075: real time      0.0075
    STRESS:  cpu time      0.0576: real time      0.0578
    FORCOR:  cpu time      0.2844: real time      0.2855
    FORHAR:  cpu time      0.0849: real time      0.0851
    MIXING:  cpu time      0.0145: real time      0.0146
    OFIELD:  cpu time      0.0000: real time      0.0000

  FORCE on cell =-STRESS in cart. coord.  units (eV):
  Direction    XX          YY          ZZ          XY          YZ          ZX
  --------------------------------------------------------------------------------------
  Alpha Z     0.21990     0.21990     0.21990
  Ewald      -3.76197    -3.76197     5.58546    -0.00000    -0.00000    -0.00000
  Hartree     4.88967     4.88967     4.90916    -0.00000    -0.00000    -0.00000
  E(xc)      -4.45561    -4.45561    -4.54395    -0.00000    -0.00000    -0.00000
  Local      -5.69194    -5.69194   -15.03688     0.00000    -0.00000    -0.00000
  n-local    -2.23761    -2.23761    -2.81328     0.00000    -0.00000    -0.00000
  augment     0.06742     0.06742     0.05921     0.00000     0.00000    -0.00000
  Kinetic    10.76526    10.76526    10.95692     0.00000     0.00000     0.00000
  Fock        0.00000     0.00000     0.00000     0.00000     0.00000     0.00000
  -------------------------------------------------------------------------------------
  Total      -0.20489    -0.20489    -0.66346     0.00000    -0.00000    -0.00000
  in kB      -0.80746    -0.80746    -2.61472     0.00000    -0.00000    -0.00000
  external pressure =       -1.41 kB  Pullay stress =        0.00 kB


 VOLUME and BASIS-vectors are now :
 -----------------------------------------------------------------------------
  energy-cutoff  :      400.00
  volume of cell :      406.54
      direct lattice vectors                 reciprocal lattice vectors
     7.408002056  0.000000000  0.000000000     0.134989163  0.000000000  0.000000000
     0.000000000  7.408002056  0.000000000     0.000000000  0.134989163  0.000000000
     0.000000000  0.000000000  7.408002056     0.000000000  0.000000000  0.134989163

  length of vectors
     7.408002056  7.408002056  7.408002056     0.134989163  0.134989163  0.134989163


 FORCES acting on ions
    electron-ion (+dipol)            ewald-force                    non-local-force                 convergence-correction
 -----------------------------------------------------------------------------------------------
   0.195E-07 0.104E-06 0.671E+01   0.460E-17 0.361E-17 -.520E+01   -.549E-08 -.427E-07 -.154E+01   0.604E-08 -.330E-07 0.349E-04
   0.701E-07 0.458E-06 -.426E+01   -.286E-17 -.210E-17 0.520E+01   0.653E-08 0.911E-07 -.910E+00   -.653E-07 -.432E-06 -.189E-03
 -----------------------------------------------------------------------------------------------
   0.896E-07 0.563E-06 0.245E+01   0.174E-17 0.151E-17 0.000E+00   0.104E-08 0.484E-07 -.245E+01   -.592E-07 -.465E-06 -.154E-03
 
 
 POSITION                                       TOTAL-FORCE (eV/Angst)
 -----------------------------------------------------------------------------------
      0.00000      0.00000      0.00000         0.000000     -0.000000     -0.033104
      0.00000      0.00000      1.62106        -0.000000      0.000000      0.033104
 -----------------------------------------------------------------------------------
    total drift:                                0.000000      0.000000     -0.000155


--------------------------------------------------------------------------------------------------------



  FREE ENERGIE OF THE ION-ELECTRON SYSTEM (eV)
  ---------------------------------------------------
  free  energy   TOTEN  =        -3.86706678 eV

  energy  without entropy=       -3.87866259  energy(sigma->0) =       -3.87093205
 


--------------------------------------------------------------------------------------------------------


    POTLOK:  cpu time      0.2810: real time      0.2819


--------------------------------------------------------------------------------------------------------


 writing wavefunctions
     LOOP+:  cpu time      6.0437: real time      6.0888
    4ORBIT:  cpu time      0.0000: real time      0.0000

 total amount of memory used by VASP MPI-rank0   116648. kBytes
=======================================================================

   base      :      30000. kBytes
   nonl-proj :        870. kBytes
   fftplans  :      30736. kBytes
   grid      :      54743. kBytes
   one-center:          8. kBytes
   wavefun   :        291. kBytes
 
  
  
 General timing and accounting informations for this job:
 ========================================================
  
                  Total CPU time used (sec):        7.609
                            User time (sec):        6.467
                          System time (sec):        1.143
                         Elapsed time (sec):        7.802
  
                   Maximum memory used (kb):      241932.
                   Average memory used (kb):          N/A
  
                          Minor page faults:       101252
                          Major page faults:         1059
                 Voluntary context switches:          872
