 vasp.6.3.0 20Jan22 (build Dec  8 2022 17:40:58) gamma-only                      
 executed on             LinuxGNU date 2025.05.20  13:36:13
 running on    1 total cores
 distrk:  each k-point on    1 cores,    1 groups
 distr:  one band on NCORE=   1 cores,    1 groups


--------------------------------------------------------------------------------------------------------


 INCAR:
   ENCUT = 1000
   SIGMA = 0.0001
   EDIFF = 1E-6
   LHFCALC = .TRUE.
   AEXX = 1.0
   ISYM = -1
   ALGO = sub
   NELM = 1
   NBANDS = 6
   NBANDSHIGH = 6
   PREC = Accurate

 POTCAR:    PAW_PBE He_GW 23Feb2015               
 POTCAR:    PAW_PBE He_GW 23Feb2015               
   SHA256 =  3abac926d96e91498f3915cb010d0fbb15fe9ea31a649aacf98be39d0884cf70 He_GW/POTCAR          
   COPYR  = (c) Copyright 23Feb2015 Georg Kresse                                                    
   COPYR  = This file is part of the software VASP. Any use, copying, and all other rights are regul
   COPYR  = If you do not have a valid VASP license, you may not use, copy or distribute this file. 
   VRHFIN =He: 1s                                                                                   
   LEXCH  = PE                                                                                      
   EATOM  =    78.7251 eV,    5.7861 Ry                                                             
                                                                                                    
   TITEL  = PAW_PBE He_GW 23Feb2015                                                                 
   LULTRA =        F    use ultrasoft PP ?                                                          
   IUNSCR =        0    unscreen: 0-lin 1-nonlin 2-no                                               
   RPACOR =    0.000    partial core radius                                                         
   POMASS =    4.000; ZVAL   =    2.000    mass and valenz                                          
   RCORE  =    1.200    outmost cutoff radius                                                       
   RWIGS  =    1.200; RWIGS  =    0.635    wigner-seitz radius (au A)                               
   ENMAX  =  405.780; ENMIN  =  304.335 eV                                                          
   RCLOC  =    0.703    cutoff for local pot                                                        
   LCOR   =        T    correct aug charges                                                         
   LPAW   =        T    paw PP                                                                      
   EAUG   = 1514.192                                                                                
   RMAX   =    1.224    core radius for proj-oper                                                   
   RAUG   =    1.200    factor for augmentation sphere                                              
   RDEP   =    1.261    radius for radial grids                                                     
   RDEPT  =    1.051    core radius for aug-charge                                                  
                                                                                                    
   Atomic configuration                                                                             
    3 entries                                                                                       
     n  l   j            E        occ.                                                              
     1  0  0.50       -15.7639   2.0000                                                             
     2  1  0.50        -2.8912   0.0000                                                             
     3  2  1.50        -2.8912   0.0000                                                             
   Description                                                                                      
     l       E           TYP  RCUT    TYP  RCUT                                                     
     0    -15.7638891     23  1.200                                                                 
     0     27.2116520     23  1.200                                                                 
     1     -6.8029130     23  1.200                                                                 
     1     81.6349560     23  1.200                                                                 
     1    476.2039100     23  1.200                                                                 
     2     81.6349560     23  1.200                                                                 
     2    142.8611730     23  1.200                                                                 
  local pseudopotential read in
  kinetic energy density of atom read in
  atomic valenz-charges read in
  non local Contribution for L=           0  read in
    real space projection operators read in
  non local Contribution for L=           0  read in
    real space projection operators read in
  non local Contribution for L=           1  read in
    real space projection operators read in
  non local Contribution for L=           1  read in
    real space projection operators read in
  non local Contribution for L=           1  read in
    real space projection operators read in
  non local Contribution for L=           2  read in
    real space projection operators read in
  non local Contribution for L=           2  read in
    real space projection operators read in
    PAW grid and wavefunctions read in

   number of l-projection  operators is LMAX  =           7
   number of lm-projection operators is LMMAX =          21

  PAW_PBE He_GW 23Feb2015               :
 energy of atom  1       EATOM=  -78.7251
 kinetic energy error for atom=    0.0004 (will be added to EATOM!!)


 POSCAR: He
  positions in cartesian coordinates
  No initial velocities read in
 exchange correlation table for  LEXCH =        8
   RHO(1)=    0.500       N(1)  =     2000
   RHO(2)=  100.500       N(2)  =     4000



--------------------------------------------------------------------------------------------------------


 ion  position               nearest neighbor table
   1  0.000  0.000  0.000-


IMPORTANT INFORMATION: All symmetrisations will be switched off!
NOSYMM: (Re-)initialisation of all symmetry stuff for point group C_1.


----------------------------------------------------------------------------------------

                                     Primitive cell                                     

  volume of cell :     148.1845

  direct lattice vectors                    reciprocal lattice vectors
     5.291770000  0.000000000  0.000000000     0.188972688  0.000000000  0.000000000
     0.000000000  5.291770000  0.000000000     0.000000000  0.188972688  0.000000000
     0.000000000  0.000000000  5.291770000     0.000000000  0.000000000  0.188972688

  length of vectors
     5.291770000  5.291770000  5.291770000     0.188972688  0.188972688  0.188972688

  position of ions in fractional coordinates (direct lattice)
     0.000000000  0.000000000  0.000000000

  ion indices of the primitive-cell ions
   primitive index   ion index
                 1           1

----------------------------------------------------------------------------------------



 KPOINTS: Automatically generated mesh            

Automatic generation of k-mesh.
 Grid dimensions read from file:
 generate k-points for:    1    1    1

 Generating k-lattice:

  Cartesian coordinates                     Fractional coordinates (reciprocal lattice)
     0.188972688  0.000000000  0.000000000     1.000000000  0.000000000  0.000000000
     0.000000000  0.188972688  0.000000000     0.000000000  1.000000000  0.000000000
     0.000000000  0.000000000  0.188972688     0.000000000  0.000000000  1.000000000

  Length of vectors
     0.188972688  0.188972688  0.188972688

  Shift w.r.t. Gamma in fractional coordinates (k-lattice)
     0.000000000  0.000000000  0.000000000

 
 Subroutine IBZKPT returns following result:
 ===========================================
 
 Found      1 irreducible k-points:
 
 Following reciprocal coordinates:
            Coordinates               Weight
  0.000000  0.000000  0.000000      1.000000
 
 Following cartesian coordinates:
            Coordinates               Weight
  0.000000  0.000000  0.000000      1.000000
 
 WARNING: full set of k-points will be restricted to regular points only.

 
 Subroutine IBZKPT_HF returns following result:
 ==============================================
 
 Found      1 k-points in 1st BZ
 the following      1 k-points will be used (e.g. in the exchange kernel)
 Following reciprocal coordinates:   # in IRBZ
  0.000000  0.000000  0.000000    1.00000000   1 t-inv F


--------------------------------------------------------------------------------------------------------




 Dimension of arrays:
   k-points           NKPTS =      1   k-points in BZ     NKDIM =      1   number of bands    NBANDS=      6
   number of dos      NEDOS =    301   number of ions     NIONS =      1
   non local maximal  LDIM  =      7   non local SUM 2l+1 LMDIM =     21
   total plane-waves  NPLWV = 175616
   max r-space proj   IRMAX =      1   max aug-charges    IRDMAX=   8484
   dimension x,y,z NGX =    56 NGY =   56 NGZ =   56
   dimension x,y,z NGXF=   112 NGYF=  112 NGZF=  112
   support grid    NGXF=   112 NGYF=  112 NGZF=  112
   ions per type =               1
   lowest and highest band optimized NBANDSLOW=      -1 NBANDSHIGH=       6
   NGX,Y,Z   is equivalent  to a cutoff of  17.59, 17.59, 17.59 a.u.
   NGXF,Y,Z  is equivalent  to a cutoff of  35.19, 35.19, 35.19 a.u.

 SYSTEM =  unknown system                          
 POSCAR =  He                                      

 Startparameter for this run:
   NWRITE =      2    write-flag & timer
   PREC   = accura    normal or accurate (medium, high low for compatibility)
   ISTART =      1    job   : 0-new  1-cont  2-samecut
   ICHARG =      0    charge: 1-file 2-atom 10-const
   ISPIN  =      1    spin polarized calculation?
   LNONCOLLINEAR =      F non collinear calculations
   LSORBIT =      F    spin-orbit coupling
   INIWAV =      1    electr: 0-lowe 1-rand  2-diag
   LASPH  =      F    aspherical Exc in radial PAW
 Electronic Relaxation 1
   ENCUT  = 1000.0 eV  73.50 Ry    8.57 a.u.  13.64 13.64 13.64*2*pi/ulx,y,z
   ENINI  = 1000.0     initial cutoff
   ENAUG  = 1514.2 eV  augmentation charge cutoff
   NELM   =      1;   NELMIN=  2; NELMDL=  0     # of ELM steps 
   EDIFF  = 0.1E-05   stopping-criterion for ELM
   LREAL  =      F    real-space projection
   NLSPLINE    = F    spline interpolate recip. space projectors
   LCOMPAT=      F    compatible to vasp.4.4
   GGA_COMPAT  = T    GGA compatible to vasp.4.4-vasp.4.6
   LMAXPAW     = -100 max onsite density
   LMAXMIX     =    2 max onsite mixed and CHGCAR
   VOSKOWN=      0    Vosko Wilk Nusair interpolation
   ROPT   =    0.00000
 Ionic relaxation
   EDIFFG = 0.1E-04   stopping-criterion for IOM
   NSW    =      0    number of steps for IOM
   NBLOCK =      1;   KBLOCK =      1    inner block; outer block 
   IBRION =     -1    ionic relax: 0-MD 1-quasi-New 2-CG
   NFREE  =      0    steps in history (QN), initial steepest desc. (CG)
   ISIF   =      0    stress and relaxation
   IWAVPR =     10    prediction:  0-non 1-charg 2-wave 3-comb
   ISYM   =     -1    0-nonsym 1-usesym 2-fastsym
   LCORR  =      T    Harris-Foulkes like correction to forces

   POTIM  = 0.5000    time-step for ionic-motion
   TEIN   =    0.0    initial temperature
   TEBEG  =    0.0;   TEEND  =   0.0 temperature during run
   SMASS  =  -3.00    Nose mass-parameter (am)
   estimated Nose-frequenzy (Omega)   =  0.10E-29 period in steps = 0.13E+47 mass=  -0.640E-27a.u.
   SCALEE = 1.0000    scale energy and forces
   NPACO  =    256;   APACO  = 10.0  distance and # of slots for P.C.
   PSTRESS=    0.0 pullay stress

  Mass of Ions in am
   POMASS =   4.00
  Ionic Valenz
   ZVAL   =   2.00
  Atomic Wigner-Seitz radii
   RWIGS  =  -1.00
  virtual crystal weights 
   VCA    =   1.00
   NELECT =       2.0000    total number of electrons
   NUPDOWN=      -1.0000    fix difference up-down

 DOS related values:
   EMIN   =  10.00;   EMAX   =-10.00  energy-range for DOS
   EFERMI =   0.00
   ISMEAR =     1;   SIGMA  =   0.00  broadening in eV -4-tet -1-fermi 0-gaus

 Electronic relaxation 2 (details)
   IALGO  =      4    algorithm
   LDIAG  =      T    sub-space diagonalisation (order eigenvalues)
   LSUBROT=      F    optimize rotation matrix (better conditioning)
   TURBO    =      0    0=normal 1=particle mesh
   IRESTART =      0    0=no restart 2=restart with 2 vectors
   NREBOOT  =      0    no. of reboots
   NMIN     =      0    reboot dimension
   EREF     =   0.00    reference energy to select bands
   IMIX   =      1    mixing-type and parameters
     AMIX     =   0.40;   BMIX     =  1.00
     AMIX_MAG =   1.60;   BMIX_MAG =  1.00
     AMIN     =   0.10
     WC   =   100.;   INIMIX=   1;  MIXPRE=   1;  MAXMIX= -45

 Intra band minimization:
   WEIMIN = 0.0000     energy-eigenvalue tresh-hold
   EBREAK =  0.42E-07  absolut break condition
   DEPER  =   0.30     relativ break condition  

   TIME   =   0.40     timestep for ELM

  volume/ion in A,a.u.               =     148.18      1000.00
  Fermi-wavevector in a.u.,A,eV,Ry     =   0.389778  0.736573  2.067090  0.151927
  Thomas-Fermi vector in A             =   1.331259

 Write flags
   LWAVE        =      T    write WAVECAR
   LDOWNSAMPLE  =      F    k-point downsampling of WAVECAR
   LCHARG       =      T    write CHGCAR
   LVTOT        =      F    write LOCPOT, total local potential
   LVHAR        =      F    write LOCPOT, Hartree potential only
   LELF         =      F    write electronic localiz. function (ELF)
   LORBIT       =      0    0 simple, 1 ext, 2 COOP (PROOUT), +10 PAW based schemes


 Dipole corrections
   LMONO  =      F    monopole corrections only (constant potential shift)
   LDIPOL =      F    correct potential (dipole corrections)
   IDIPOL =      0    1-x, 2-y, 3-z, 4-all directions 
   EPSILON=  1.0000000 bulk dielectric constant

 Exchange correlation treatment:
   GGA     =    --    GGA type
   LEXCH   =     8    internal setting for exchange type
   LIBXC   =     F    Libxc                    
   VOSKOWN =     0    Vosko Wilk Nusair interpolation
   EXXOEP  =     0    0=HF, 1=EXX-LHF (local Hartree Fock) 2=EXX OEP
   LHFCALC =     T    Hartree Fock is set to
   LSYMGRAD=     F    symmetrize gradient (conserves proper symmetry)
   PRECFOCK=normal    Normal, Fast or Accurate (Low or Medium for compatibility)
   LRHFCALC=     F    long range Hartree Fock
   LRSCOR  =     F    long range correlation only (use DFT for short range part)
   LTHOMAS =     F    Thomas Fermi screening in HF
   LMODELHF=     F    short range full HF, long range fraction AEXX
   LFOCKACE=     T    use Adeptively-Compressed-Exchange operator
   ENCUT4O =  -1.0   cutoff for four orbital integrals eV
   LMAXFOCK=     4    L truncation for augmentation on plane wave grid
   LMAXFOCKAE=  -1    L truncation for all-electron charge restoration on plane wave grid
   NMAXFOCKAE=   1    number of basis functions for all-electron charge restoration
   LFOCKAEDFT=     F  apply the AE augmentation even for DFT
   NKREDX  =     1    reduce k-point grid by
   NKREDY  =     1    reduce k-point grid by
   NKREDZ  =     1    reduce k-point grid by
   SHIFTRED=     F    shift reduced grid of Gamma
   HFKIDENT=     F    idential grid for each k-point
   ODDONLY =     F    use only odd q-grid points
   EVENONLY=     F    use only even q-grid points
   HFALPHA =   -1.0000 decay constant for conv. correction
   MCALPHA =    0.0000 extent of test-charge in conv. correction in multipole expansion
   AEXX    =    1.0000 exact exchange contribution
   HFSCREEN=    0.0000 screening length (either q_TF or 0.3 A-1)
   HFSCREENC=   0.0000 screening length for correlation (either q_TF or 0.3 A-1)
   HFRCUT  =    0.0000 spherical cutoff for potential kernel
   HFRCUTSOFT=    0.0000 smooth spherical cutoff for potential kernel
   ERFCRAY_SCREEN=    0.0000 screening factor for erfc+rayleigh like screening for potential kernel
   RAYLEXP=    0.0000  rayleigh exponent in erfc+rayleigh like screening
   ALDAX   =    0.0000 LDA exchange part
   AGGAX   =    0.0000 GGA exchange part
   ALDAC   =    0.0000 LDA correlation
   AGGAC   =    0.0000 GGA correlation
   ENCUTFOCK=  -1.0 apply spherical cutoff to Coloumb kernel
   NBANDSGWLOW=     1    first orbital included in HF term
   NBLOCK_FOCK=    64    blocking factor in FOCK_ACC

 Linear response parameters
   LEPSILON=     F    determine dielectric tensor
   LRPA    =     F    only Hartree local field effects (RPA)
   LNABLA  =     F    use nabla operator in PAW spheres
   LVEL    =     F    velocity operator in full k-point grid
   CSHIFT  =0.1000    complex shift for real part using Kramers Kronig
   OMEGAMAX=  -1.0    maximum frequency
   DEG_THRESHOLD= 0.2000000E-02 threshold for treating states as degnerate
   RTIME   =   -0.100 relaxation time in fs
  (WPLASMAI=    0.000 imaginary part of plasma frequency in eV, 0.658/RTIME)
   DFIELD  = 0.0000000 0.0000000 0.0000000 field for delta impulse in time

  Optional k-point grid parameters
   LKPOINTS_OPT  =     F    use optional k-point grid
   KPOINTS_OPT_MODE=     1    mode for optional k-point grid

 Orbital magnetization related:
   ORBITALMAG=     F  switch on orbital magnetization
   LCHIMAG   =     F  perturbation theory with respect to B field
   DQ        =  0.001000  dq finite difference perturbation B field
   LLRAUG    =     F  two centre corrections for induced B field



--------------------------------------------------------------------------------------------------------


 Static calculation
 charge density and potential will be updated during run
 non-spin polarized calculation
 Subrot: only subspace diagonalization (rotation)
    band-by band algorithm
 perform sub-space diagonalisation
    before iterative eigenvector-optimisation
 Kerker-like  mixing scheme
 using additional bands            5
 reciprocal scheme for non local part
 calculate Harris-corrections to forces   (improved forces if not selfconsistent)
 use gradient corrections 
 use of overlap-Matrix (Vanderbilt PP)
 Methfessel and Paxton  Order N= 1 SIGMA  =   0.00


--------------------------------------------------------------------------------------------------------


  energy-cutoff  :     1000.00
  volume of cell :      148.18
      direct lattice vectors                 reciprocal lattice vectors
     5.291770000  0.000000000  0.000000000     0.188972688  0.000000000  0.000000000
     0.000000000  5.291770000  0.000000000     0.000000000  0.188972688  0.000000000
     0.000000000  0.000000000  5.291770000     0.000000000  0.000000000  0.188972688

  length of vectors
     5.291770000  5.291770000  5.291770000     0.188972688  0.188972688  0.188972688



 old parameters found on file WAVECAR:
  energy-cutoff  :     1000.00
  volume of cell :      148.18
      direct lattice vectors                 reciprocal lattice vectors
     5.291770000  0.000000000  0.000000000     0.188972688  0.000000000  0.000000000
     0.000000000  5.291770000  0.000000000     0.000000000  0.188972688  0.000000000
     0.000000000  0.000000000  5.291770000     0.000000000  0.000000000  0.188972688

  length of vectors


 k-points in units of 2pi/SCALE and weight: Automatically generated mesh            
   0.00000000  0.00000000  0.00000000       1.000

 k-points in reciprocal lattice and weights: Automatically generated mesh            
   0.00000000  0.00000000  0.00000000       1.000

 position of ions in fractional coordinates (direct lattice) 
   0.00000000  0.00000000  0.00000000

 position of ions in cartesian coordinates  (Angst):
   0.00000000  0.00000000  0.00000000



--------------------------------------------------------------------------------------------------------


 use serial FFT for orbitals x direction half grid
 k-point   1 :   0.0000 0.0000 0.0000  plane waves:    5390

 maximum and minimum number of plane-waves per node :      5390     5390

 maximum number of plane-waves:      5390
 maximum index in each direction: 
   IXMAX=   13   IYMAX=   13   IZMAX=   13
   IXMIN=    0   IYMIN=  -13   IZMIN=  -13


 serial   3D FFT for wavefunctions
 parallel 3D FFT for charge:
    minimum data exchange during FFTs selected (reduces bandwidth)


 FFT grid for exact exchange (Hartree Fock) 
  NGX = 42; NGY = 42; NGZ = 42

 use serial FFT for orbitals x direction half grid

 Radii for the augmentation spheres in the non-local exchange
 for species   1 augmentation radius   0.734 (default was   0.587)
       energy cutoff for augmentation   4000.0
 Maximum index for augmentation-charges in exchange          799
  SETUP_FOCK is finished

 total amount of memory used by VASP MPI-rank0   155764. kBytes
=======================================================================

   base      :      30000. kBytes
   nonl-proj :        991. kBytes
   fftplans  :      48668. kBytes
   grid      :      75314. kBytes
   one-center:         10. kBytes
   HF        :         88. kBytes
   nonlr-proj:        175. kBytes
   wavefun   :        518. kBytes

     INWAV:  cpu time      0.0011: real time      0.0011
 charge density for first step will be calculated from the start-wavefunctions


--------------------------------------------------------------------------------------------------------


 Maximum index for augmentation-charges         8121 (set IRDMAX)


--------------------------------------------------------------------------------------------------------


 initial charge from wavefunction
    FEWALD:  cpu time      0.0000: real time      0.0000


--------------------------------------- Iteration      1(   1)  ---------------------------------------


    POTLOK:  cpu time      0.4758: real time      0.4793
    SETDIJ:  cpu time      0.0068: real time      0.0068
    EDDIAG:  cpu time      0.0641: real time      0.0641
       DOS:  cpu time      0.0001: real time      0.0001
    --------------------------------------------
      LOOP:  cpu time      0.5468: real time      0.5503

 eigenvalue-minimisations  :     0
 total energy-change (2. order) :-0.1750114E+00  ( 0.0000000E+00)
 number of electron       2.0000001 magnetization 
 augmentation part        0.2968444 magnetization 

 Free energy of the ion-electron system (eV)
  ---------------------------------------------------
  alpha Z        PSCENC =         0.06842487
  Ewald energy   TEWEN  =       -15.44151768
  -Hartree energ DENC   =       -38.78643681
  -exchange      EXHF   =        27.27414986
  -V(xc)+E(xc)   XCENC  =         0.00000000
  PAW double counting   =        54.99198888      -56.02385799
  entropy T*S    EENTRO =         0.00000000
  eigenvalues    EBANDS =       -50.08796755
  atomic energy  EATOM  =        77.83020501
  Solvation  Ediel_sol  =         0.00000000
  ---------------------------------------------------
  free energy    TOTEN  =        -0.17501140 eV

  energy without entropy =       -0.17501140  energy(sigma->0) =       -0.17501140
  exchange ACFDT corr.  =        -5.60656590  see jH, gK, PRB 81, 115126


--------------------------------------------------------------------------------------------------------




 average (electrostatic) potential at core
  the test charge radii are     0.5871
  (the norm of the test charge is              1.0000)
       1 -25.9182



 E-fermi : -24.6750     XC(G=0):   0.0000     alpha+bet : -0.1095

 Fermi energy:       -24.6750337342

 k-point     1 :       0.0000    0.0000    0.0000
  band No.  band energies     occupation 
      1     -25.0440      2.00000
      2      22.4402      0.00000
      3      56.9430      0.00000
      4      56.9430      0.00000
      5      56.9430      0.00000
      6     138.9338      0.00000


--------------------------------------------------------------------------------------------------------


 soft charge-density along one line, spin component           1
         0         1         2         3         4         5         6         7         8         9
 total charge-density along one line

 pseudopotential strength for first ion, spin component:           1
-10.115  14.838   0.000   0.000  -0.000   0.000   0.000  -0.000
 14.838 -42.804   0.000  -0.000  -0.000   0.000  -0.000   0.000
  0.000   0.000  -0.631  -0.000  -0.000  -1.415  -0.000   0.000
  0.000  -0.000  -0.000  -0.631   0.000  -0.000  -1.415  -0.000
 -0.000  -0.000  -0.000   0.000  -0.631   0.000  -0.000  -1.415
  0.000   0.000  -1.415  -0.000   0.000  -1.130  -0.000   0.000
  0.000  -0.000  -0.000  -1.415  -0.000  -0.000  -1.130  -0.000
 -0.000   0.000   0.000  -0.000  -1.415   0.000  -0.000  -1.130
  0.000  -0.000   0.288  -0.000   0.000  14.117  -0.000   0.000
  0.000  -0.000  -0.000   0.288  -0.000  -0.000  14.117  -0.000
 -0.000   0.000   0.000  -0.000   0.288   0.000  -0.000  14.117
  0.000   0.000  -0.000  -0.000  -0.000  -0.000  -0.000  -0.000
 -0.000   0.000   0.000  -0.000  -0.000   0.000  -0.000  -0.000
 -0.000   0.000   0.000   0.000   0.000   0.000   0.000   0.000
 -0.000  -0.000  -0.000   0.000   0.000  -0.000  -0.000   0.000
 -0.000  -0.000   0.000  -0.000  -0.000   0.000  -0.000  -0.000
  0.000   0.000  -0.000  -0.000  -0.000  -0.000   0.000   0.000
 -0.000   0.000   0.000  -0.000  -0.000   0.000   0.000   0.000
 -0.000   0.000   0.000   0.000   0.000  -0.000   0.000   0.000
 -0.000  -0.000  -0.000   0.000   0.000   0.000  -0.000   0.000
 -0.000  -0.000   0.000  -0.000  -0.000  -0.000   0.000  -0.000
 total augmentation occupancy for first ion, spin component:           1
  2.058   0.018   0.000  -0.000  -0.000  -0.000   0.000   0.000  -0.000   0.000  -0.000  -0.000   0.000   0.000   0.000   0.000
  0.018   0.000   0.000  -0.000  -0.000  -0.000   0.000   0.000  -0.000   0.000  -0.000  -0.000   0.000   0.000   0.000   0.000
  0.000   0.000   0.000  -0.000  -0.000  -0.000   0.000   0.000  -0.000   0.000  -0.000  -0.000   0.000   0.000   0.000   0.000
 -0.000  -0.000  -0.000   0.000   0.000   0.000  -0.000  -0.000   0.000  -0.000   0.000   0.000  -0.000  -0.000  -0.000  -0.000
 -0.000  -0.000  -0.000   0.000   0.000   0.000  -0.000  -0.000   0.000  -0.000   0.000   0.000  -0.000  -0.000  -0.000  -0.000
 -0.000  -0.000  -0.000   0.000   0.000   0.000  -0.000  -0.000   0.000  -0.000   0.000   0.000  -0.000  -0.000  -0.000  -0.000
  0.000   0.000   0.000  -0.000  -0.000  -0.000   0.000   0.000  -0.000   0.000  -0.000  -0.000   0.000   0.000   0.000   0.000
  0.000   0.000   0.000  -0.000  -0.000  -0.000   0.000   0.000  -0.000   0.000  -0.000  -0.000   0.000   0.000   0.000   0.000
 -0.000  -0.000  -0.000   0.000   0.000   0.000  -0.000  -0.000   0.000  -0.000   0.000   0.000  -0.000  -0.000  -0.000  -0.000
  0.000   0.000   0.000  -0.000  -0.000  -0.000   0.000   0.000  -0.000   0.000  -0.000  -0.000   0.000   0.000   0.000   0.000
 -0.000  -0.000  -0.000   0.000   0.000   0.000  -0.000  -0.000   0.000  -0.000   0.000   0.000  -0.000  -0.000  -0.000  -0.000
 -0.000  -0.000  -0.000   0.000   0.000   0.000  -0.000  -0.000   0.000  -0.000   0.000   0.000  -0.000  -0.000  -0.000  -0.000
  0.000   0.000   0.000  -0.000  -0.000  -0.000   0.000   0.000  -0.000   0.000  -0.000  -0.000   0.000   0.000   0.000   0.000
  0.000   0.000   0.000  -0.000  -0.000  -0.000   0.000   0.000  -0.000   0.000  -0.000  -0.000   0.000   0.000   0.000   0.000
  0.000   0.000   0.000  -0.000  -0.000  -0.000   0.000   0.000  -0.000   0.000  -0.000  -0.000   0.000   0.000   0.000   0.000
  0.000   0.000   0.000  -0.000  -0.000  -0.000   0.000   0.000  -0.000   0.000  -0.000  -0.000   0.000   0.000   0.000   0.000
  0.000   0.000   0.000  -0.000  -0.000  -0.000   0.000   0.000  -0.000   0.000  -0.000  -0.000   0.000   0.000   0.000   0.000
 -0.000  -0.000  -0.000   0.000   0.000   0.000  -0.000  -0.000   0.000  -0.000   0.000   0.000  -0.000  -0.000  -0.000  -0.000
 -0.000  -0.000  -0.000   0.000   0.000   0.000  -0.000  -0.000   0.000  -0.000   0.000   0.000  -0.000  -0.000  -0.000  -0.000
 -0.000  -0.000  -0.000   0.000   0.000   0.000  -0.000  -0.000   0.000  -0.000   0.000   0.000  -0.000  -0.000  -0.000  -0.000
 -0.000  -0.000  -0.000   0.000   0.000   0.000  -0.000  -0.000   0.000  -0.000   0.000   0.000  -0.000  -0.000  -0.000  -0.000


------------------------ aborting loop because EDIFF is reached ----------------------------------------


    CHARGE:  cpu time      0.0302: real time      0.0302
    FORLOC:  cpu time      0.0154: real time      0.0154
    FORHF :  cpu time      0.0056: real time      0.0056
    FORNL :  cpu time      0.0067: real time      0.0067
    FORHAR:  cpu time      0.1228: real time      0.1228
    MIXING:  cpu time      0.0091: real time      0.0091
    OFIELD:  cpu time      0.0000: real time      0.0000

 VOLUME and BASIS-vectors are now :
 -----------------------------------------------------------------------------
  energy-cutoff  :     1000.00
  volume of cell :      148.18
      direct lattice vectors                 reciprocal lattice vectors
     5.291770000  0.000000000  0.000000000     0.188972688  0.000000000  0.000000000
     0.000000000  5.291770000  0.000000000     0.000000000  0.188972688  0.000000000
     0.000000000  0.000000000  5.291770000     0.000000000  0.000000000  0.188972688

  length of vectors
     5.291770000  5.291770000  5.291770000     0.188972688  0.188972688  0.188972688


 FORCES acting on ions
    electron-ion (+dipol)            ewald-force                    non-local-force                 convergence-correction
 -----------------------------------------------------------------------------------------------
   0.233E-09 0.340E-09 -.139E-09   -.686E-17 0.172E-17 0.819E-17   0.199E-09 -.411E-09 -.405E-10   -.218E-09 0.266E-09 0.564E-10
 -----------------------------------------------------------------------------------------------
   0.233E-09 0.340E-09 -.139E-09   -.686E-17 0.172E-17 0.819E-17   0.199E-09 -.411E-09 -.405E-10   -.218E-09 0.266E-09 0.564E-10


 POSITION                                       TOTAL-FORCE (eV/Angst)
 -----------------------------------------------------------------------------------
      0.00000      0.00000      0.00000         0.000000      0.000000     -0.000000
 -----------------------------------------------------------------------------------
    total drift:                                0.000000      0.000000     -0.000000


--------------------------------------------------------------------------------------------------------



  FREE ENERGIE OF THE ION-ELECTRON SYSTEM (eV)
  ---------------------------------------------------
  free  energy   TOTEN  =        -0.17501140 eV

  energy  without entropy=       -0.17501140  energy(sigma->0) =       -0.17501140



--------------------------------------------------------------------------------------------------------


    POTLOK:  cpu time      0.4762: real time      0.4762


--------------------------------------------------------------------------------------------------------


 writing wavefunctions
     LOOP+:  cpu time      2.1507: real time      2.4313
    4ORBIT:  cpu time      0.0000: real time      0.0000

 total amount of memory used by VASP MPI-rank0   171026. kBytes
=======================================================================

   base      :      30000. kBytes
   nonl-proj :        991. kBytes
   fftplans  :      48668. kBytes
   grid      :      75314. kBytes
   one-center:         10. kBytes
   HF        :         88. kBytes
   nonlr-proj:        175. kBytes
   wavefun   :        518. kBytes
   fock_wrk  :      15262. kBytes

  
  
 General timing and accounting informations for this job:
 ========================================================
  
                  Total CPU time used (sec):        4.620
                            User time (sec):        4.488
                          System time (sec):        0.132
                         Elapsed time (sec):        5.361
  
                   Maximum memory used (kb):      229800.
                   Average memory used (kb):          N/A
  
                          Minor page faults:        75395
                          Major page faults:            0
                 Voluntary context switches:         2568
 
 PROFILE, used timers:     247
 =============================
 
 index                 routine                    time                            calls level
----------------------------------------------------------------------------------------------
    1    total_time                            5.362512                                1   1
    2      crpa_reader                           0.000020                              1   2
    3      rspher_all                            0.000103                              1   2
    4      fock_set_fsg                          0.000295                              1   2
    5        fewald                                0.000293                            1   3
    6          rsp                                   0.000019                          1   4
    7          rcp                                   0.000004                          1   4
    8      stufak                                0.005354                              1   2
    9      spher                                 0.001295                              1   2
   10      phase                                 0.000000                              1   2
   11      setdij_                               0.001614                              2   2
   12      vectorpot                             0.000000                              1   2
   13      proall                                0.000318                              1   2
   14        phase                                 0.000062                            1   3
   15        proj                                  0.000255                            1   3
   16          proj1                                 0.000251                          6   4
   17            crexp_mul_wave                        0.000045                        6   5
   18      orthch                                0.000227                              1   2
   19        overl                                 0.000002                            1   3
   20        orth1                                 0.000099                            1   3
   21        choleski                              0.000007                            1   3
   22        lincom                                0.000116                            1   3
   23      redis_pw_over_bands                   0.000000                              1   2
   24      set_charge                            0.033154                              1   2
   25        soft_charge                           0.005685                            1   3
   26          fftwav_mpi                            0.001762                          1   4
   27            fftwav                                0.001761                        1   5
   28              fft3d                                 0.001669                      1   6
   29          pw_charge                             0.000227                          1   4
   30          fft_gq                                0.002707                          1   4
   31            fft3d_mpi                             0.002636                        1   5
   32              fftbrc_mpi                            0.001917                      1   6
   33                fftbas_plan_mpi                       0.001917                    1   7
   34                  dfftw_execute                         0.001249                  3   8
   35                  map_backward                          0.000613                  2   8
   36                    map_gather                            0.000525                1   9
   37        depsum                                0.000002                            1   3
   38        augmentation_charge                   0.026398                            1   3
   39          fft3d_mpi                             0.019569                          1   4
   40            fftbrc_mpi                            0.018815                        1   5
   41              fftbas_plan_mpi                       0.018815                      1   6
   42                dfftw_execute                         0.012466                    3   7
   43                map_backward                          0.006266                    2   7
   44                  map_gather                            0.005248                  1   8
   45      fewald                                0.000027                              1   2
   46        rsp                                   0.000019                            1   3
   47        rcp                                   0.000005                            1   3
   48      elmin                                 0.551115                              1   2
   49        potlok                                0.475764                            1   3
   50          fft3d_mpi                             0.207203                         13   4
   51            fftbrc_mpi                            0.196181                       13   5
   52              fftbas_plan_mpi                       0.196174                     13   6
   53                dfftw_execute                         0.151437                   39   7
   54                map_forward                           0.023348                   14   7
   55                  map_scatter                           0.016272                  7   8
   56                map_backward                          0.020541                   12   7
   57                  map_gather                            0.014577                  6   8
   58          ggaall_grid                           0.133210                          1   4
   59          pothar                                0.004394                          1   4
   60        potlok_metagga                        0.000000                            1   3
   61        vectorpot                             0.000000                            1   3
   62        setdij_                               0.000807                            1   3
   63        set_dd_magatom                        0.000000                            1   3
   64        set_dd_paw                            0.005982                            1   3
   65        fock_all_dblbuf                       0.022529                            1   3
   66          phase                                 0.000000                          1   4
   67          fft_and_gather                        0.004550                          1   4
   68            w1_copy                               0.000064                        6   5
   69            fftwav_mpi                            0.004481                        6   5
   70              fftwav                                0.004478                      6   6
   71                fft3d                                 0.004170                    6   7
   72          waitgth                               0.000000                          1   4
   73          fock_fwd                              0.012983                          1   4
   74            fock_set_gfac_vkpt                    0.000162                        1   5
   75              phaser_hf                             0.000000                      1   6
   76            w1_copy                               0.000012                        1   5
   77            fftwav_mpi                            0.000749                        1   5
   78              fftwav                                0.000749                      1   6
   79                fft3d                                 0.000698                    1   7
   80            fock_charge_mu                        0.000817                        1   5
   81              racc0mu_hf                            0.000062                      1   6
   82            fft3d_mpi                             0.008067                       12   5
   83              fft3d                                 0.008060                     12   6
   84            apply_gfac_exchange                   0.000356                        6   5
   85            vhamil_trace                          0.000794                        6   5
   86            rpromu_hf                             0.000038                        1   5
   87            calc_dllmm_trans                      0.000011                        6   5
   88            overl_fock                            0.000001                        6   5
   89          reduce                                0.000000                          1   4
   90          waitred                               0.000000                          1   4
   91          fock_bck                              0.004703                          1   4
   92            overl1                                0.000001                        6   5
   93            vnlac0                                0.000331                        6   5
   94              gemm                                  0.000285                      6   6
   95              work_mul_crexp                        0.000044                      6   6
   96            fftext_mpi                            0.004237                        6   5
   97              fft3d_mpi                             0.004180                      6   6
   98                fft3d                                 0.004177                    6   7
   99        fock_ace_construct                    0.000222                            1   3
  100          orth1                                 0.000103                          1   4
  101          choleski                              0.000004                          1   4
  102          lincom                                0.000112                          1   4
  103        eddiag                                0.041311                            1   3
  104          fock_all_dblbuf                       0.021421                          1   4
  105            phase                                 0.000000                        1   5
  106            fft_and_gather                        0.004531                        1   5
  107              w1_copy                               0.000046                      6   6
  108              fftwav_mpi                            0.004482                      6   6
  109                fftwav                                0.004482                    6   7
  110                  fft3d                                 0.004177                  6   8
  111            waitgth                               0.000000                        1   5
  112            fock_fwd                              0.012110                        1   5
  113              fock_set_gfac_vkpt                    0.000162                      1   6
  114                phaser_hf                             0.000000                    1   7
  115              w1_copy                               0.000010                      1   6
  116              fftwav_mpi                            0.000753                      1   6
  117                fftwav                                0.000753                    1   7
  118                  fft3d                                 0.000702                  1   8
  119              fock_charge_mu                        0.000724                      1   6
  120                racc0mu_hf                            0.000046                    1   7
  121              fft3d_mpi                             0.008173                     12   6
  122                fft3d                                 0.008167                   12   7
  123              apply_gfac_exchange                   0.000359                      6   6
  124              vhamil_trace                          0.000777                      6   6
  125              rpromu_hf                             0.000038                      1   6
  126              calc_dllmm_trans                      0.000014                      6   6
  127              overl_fock                            0.000001                      6   6
  128            reduce                                0.000000                        1   5
  129            waitred                               0.000000                        1   5
  130            fock_bck                              0.004753                        1   5
  131              overl1                                0.000001                      6   6
  132              vnlac0                                0.000353                      6   6
  133                gemm                                  0.000294                    6   7
  134                work_mul_crexp                        0.000054                    6   7
  135              fftext_mpi                            0.004267                      6   6
  136                fft3d_mpi                             0.004209                    6   7
  137                  fft3d                                 0.004207                  6   8
  138          overl                                 0.000002                          1   4
  139          fftwav_mpi                            0.009157                          6   4
  140            fftwav                                0.009155                        6   5
  141              fft3d                                 0.008655                      6   6
  142          hamilt_local                          0.010175                          6   4
  143            vhamil                                0.001494                        6   5
  144            kinhamil                              0.008678                        6   5
  145              fftext_mpi                            0.008631                      6   6
  146                fft3d_mpi                             0.008556                    6   7
  147                  fft3d                                 0.008553                  6   8
  148          orth1                                 0.000106                          1   4
  149          shift_bands_between_low_high          0.000000                          1   4
  150          pdssyex_zheevx                        0.000213                          1   4
  151            FERMAT_RAZOR                          0.000001                        1   5
  152          lincom                                0.000132                          1   4
  153        densta                                0.000003                            1   3
  154      rotate_active_occupied_orbital        0.000000                              1   2
  155      force_and_stress                      0.189927                              1   2
  156        set_charge                            0.026568                            1   3
  157          soft_charge                           0.004272                          1   4
  158            fftwav_mpi                            0.001661                        1   5
  159              fftwav                                0.001660                      1   6
  160                fft3d                                 0.001546                    1   7
  161            pw_charge                             0.000240                        1   5
  162            fft_gq                                0.002075                        1   5
  163              fft3d_mpi                             0.002008                      1   6
  164                fftbrc_mpi                            0.001624                    1   7
  165                  fftbas_plan_mpi                       0.001624                  1   8
  166                    dfftw_execute                         0.001283                3   9
  167                    map_backward                          0.000288                2   9
  168                      map_gather                            0.000189              1  10
  169          depsum                                0.000002                          1   4
  170          augmentation_charge                   0.021232                          1   4
  171            fft3d_mpi                             0.016849                        1   5
  172              fftbrc_mpi                            0.016014                      1   6
  173                fftbas_plan_mpi                       0.016013                    1   7
  174                  dfftw_execute                         0.012531                  3   8
  175                  map_backward                          0.003420                  2   8
  176                    map_gather                            0.002425                1   9
  177        forloc                                0.015358                            1   3
  178        fock_force                            0.005609                            1   3
  179          wrk_allocate                          0.000609                          1   4
  180            fock_set_fsg                          0.000026                        1   5
  181              fewald                                0.000025                      1   6
  182                rsp                                   0.000019                    1   7
  183                rcp                                   0.000005                    1   7
  184            rspher_all                            0.000516                        3   5
  185          phase                                 0.000000                          1   4
  186          projxyz                               0.001737                          1   4
  187            phase                                 0.000000                        1   5
  188          fft_and_gather                        0.000757                          1   4
  189            w1_copy                               0.000007                        1   5
  190            fftwav_mpi                            0.000747                        1   5
  191              fftwav                                0.000747                      1   6
  192                fft3d                                 0.000705                    1   7
  193          fock_set_gfac_vkpt                    0.000164                          1   4
  194            phaser_hf                             0.000000                        1   5
  195          w1_copy                               0.000006                          1   4
  196          fftwav_mpi                            0.000740                          1   4
  197            fftwav                                0.000740                        1   5
  198              fft3d                                 0.000689                      1   6
  199          fock_charge_mu                        0.000123                          1   4
  200            racc0mu_hf                            0.000022                        1   5
  201          fft3d_mpi                             0.001336                          2   4
  202            fft3d                                 0.001335                        2   5
  203          apply_gfac_weight                     0.000046                          1   4
  204          rpromu_hf                             0.000056                          4   4
  205          calc_dllmm_trans                      0.000013                          6   4
  206          eccp_nl_fock                          0.000001                          3   4
  207          contraction                           0.000000                          3   4
  208          wrk_deallocate                        0.000003                          1   4
  209        fornl                                 0.002422                            1   3
  210          phase                                 0.000000                          1   4
  211        fordep                                0.004270                            1   3
  212          setdij_                               0.004266                          6   4
  213        setdij_                               0.000702                            1   3
  214        set_dd_magatom                        0.000000                            1   3
  215        set_dd_paw                            0.005989                            1   3
  216        chggra                                0.096098                            1   3
  217          fft3d_mpi                             0.051450                          3   4
  218            fftbrc_mpi                            0.048892                        3   5
  219              fftbas_plan_mpi                       0.048892                      3   6
  220                dfftw_execute                         0.037556                    9   7
  221                map_forward                           0.007749                    4   7
  222                  map_scatter                           0.005427                  2   8
  223                map_backward                          0.003396                    2   7
  224                  map_gather                            0.002395                  1   8
  225          pothar                                0.006229                          1   4
  226        forhar                                0.019967                            1   3
  227      potlok                                0.469224                              1   2
  228        fft3d_mpi                             0.206727                           13   3
  229          fftbrc_mpi                            0.195633                         13   4
  230            fftbas_plan_mpi                       0.195626                       13   5
  231              dfftw_execute                         0.150566                     39   6
  232              map_forward                           0.023649                     14   6
  233                map_scatter                           0.016349                    7   7
  234              map_backward                          0.020564                     12   6
  235                map_gather                            0.014563                    6   7
  236        ggaall_grid                           0.133032                            1   3
  237        pothar                                0.004368                            1   3
  238      potlok_metagga                        0.000001                              1   2
  239      set_dd_magatom                        0.000000                              1   2
  240      set_dd_paw                            0.005993                              1   2
  241      fft3d_mpi                             0.036386                              2   2
  242        fftbrc_mpi                            0.034567                            2   3
  243          fftbas_plan_mpi                       0.034566                          2   4
  244            dfftw_execute                         0.026438                        6   5
  245            map_forward                           0.007967                        4   5
  246              map_scatter                           0.005638                      2   6
  247      densta                                0.000009                              1   2
 
 Flat profile
 ============
 
             routine name                   CPU           calls
 ---------------------------------------------------------------
 total_time                              4.067450           1
 dfftw_execute                           0.393526         105
 ggaall_grid                             0.266242           2
 potlok                                  0.256053           2
 fft3d                                   0.057511          68
 map_scatter                             0.043686          18
 map_gather                              0.039922          17
 chggra                                  0.038419           1
 fft3d_mpi                               0.029207          79
 forhar                                  0.019967           1
 map_forward                             0.019027          36
 set_dd_paw                              0.017964           3
 forloc                                  0.015358           1
 map_backward                            0.015166          34
 pothar                                  0.014991           3
 force_and_stress                        0.012944           1
 augmentation_charge                     0.011212           2
 setdij_                                 0.007389          10
 stufak                                  0.005354           1
 elmin                                   0.004497           1
 fock_fwd                                0.003075           2
 fornl                                   0.002422           1
 fftbas_plan_mpi                         0.002300          35
 set_charge                              0.002131           2
 projxyz                                 0.001737           1
 vhamil_trace                            0.001571          12
 fock_charge_mu                          0.001534           3
 fftwav                                  0.001513          24
 vhamil                                  0.001494           6
 spher                                   0.001295           1
 soft_charge                             0.001285           2
 apply_gfac_exchange                     0.000715          12
 rspher_all                              0.000619           4
 gemm                                    0.000579          12
 fock_set_gfac_vkpt                      0.000488           3
 pw_charge                               0.000467           2
 lincom                                  0.000360           3
 fock_all_dblbuf                         0.000320           2
 orth1                                   0.000308           3
 fewald                                  0.000274           3
 fock_bck                                0.000267           2
 pdssyex_zheevx                          0.000212           1
 proj1                                   0.000206           6
 fftext_mpi                              0.000190          18
 w1_copy                                 0.000145          16
 fft_gq                                  0.000138           2
 rpromu_hf                               0.000132           6
 racc0mu_hf                              0.000130           3
 eddiag                                  0.000105           1
 work_mul_crexp                          0.000098          12
 wrk_allocate                            0.000067           1
 phase                                   0.000062           7
 rsp                                     0.000057           3
 kinhamil                                0.000047           6
 apply_gfac_weight                       0.000046           1
 crexp_mul_wave                          0.000045           6
 calc_dllmm_trans                        0.000038          18
 crpa_reader                             0.000020           1
 fock_force                              0.000018           1
 fftbrc_mpi                              0.000017          35
 rcp                                     0.000014           3
 densta                                  0.000012           2
 fft_and_gather                          0.000011           3
 choleski                                0.000011           2
 vnlac0                                  0.000007          12
 fftwav_mpi                              0.000007          24
 fordep                                  0.000004           1
 proj                                    0.000004           1
 overl                                   0.000004           2
 depsum                                  0.000004           2
 fock_ace_construct                      0.000003           1
 orthch                                  0.000003           1
 hamilt_local                            0.000003           6
 wrk_deallocate                          0.000003           1
 fock_set_fsg                            0.000003           2
 overl_fock                              0.000002          12
 overl1                                  0.000002          12
 proall                                  0.000001           1
 FERMAT_RAZOR                            0.000001           1
 eccp_nl_fock                            0.000001           3
 potlok_metagga                          0.000001           2
 vectorpot                               0.000000           2
 shift_bands_between_low_high            0.000000           1
 waitgth                                 0.000000           2
 reduce                                  0.000000           2
 contraction                             0.000000           3
 waitred                                 0.000000           2
 rotate_active_occupied_orbital          0.000000           1
 redis_pw_over_bands                     0.000000           1
 set_dd_magatom                          0.000000           3
 phaser_hf                               0.000000           3
 ---------------------------------------------------------------
  summed up times    5.3625121116638184     
 
 Accumulative profile
 ====================
 
             routine name                   CPU           calls
 ---------------------------------------------------------------
 total_time                              5.362512           1
 potlok                                  0.944988           2
 fft3d_mpi                               0.577349          79
 elmin                                   0.551115           1
 fftbrc_mpi                              0.513643          35
 fftbas_plan_mpi                         0.513626          35
 dfftw_execute                           0.393526         105
 ggaall_grid                             0.266242           2
 force_and_stress                        0.189927           1
 chggra                                  0.096098           1
 map_forward                             0.062712          36
 set_charge                              0.059722           2
 fft3d                                   0.057511          68
 map_backward                            0.055087          34
 augmentation_charge                     0.047630           2
 fock_all_dblbuf                         0.043950           2
 map_scatter                             0.043686          18
 eddiag                                  0.041311           1
 map_gather                              0.039922          17
 fock_fwd                                0.025093           2
 fftwav_mpi                              0.024532          24
 fftwav                                  0.024525          24
 forhar                                  0.019967           1
 set_dd_paw                              0.017964           3
 fftext_mpi                              0.017135          18
 forloc                                  0.015358           1
 pothar                                  0.014991           3
 hamilt_local                            0.010175           6
 soft_charge                             0.009957           2
 fft_and_gather                          0.009838           3
 fock_bck                                0.009456           2
 kinhamil                                0.008678           6
 setdij_                                 0.007389          10
 fock_force                              0.005609           1
 stufak                                  0.005354           1
 fft_gq                                  0.004782           2
 fordep                                  0.004270           1
 fornl                                   0.002422           1
 projxyz                                 0.001737           1
 fock_charge_mu                          0.001664           3
 vhamil_trace                            0.001571          12
 vhamil                                  0.001494           6
 spher                                   0.001295           1
 apply_gfac_exchange                     0.000715          12
 vnlac0                                  0.000684          12
 rspher_all                              0.000619           4
 wrk_allocate                            0.000609           1
 gemm                                    0.000579          12
 fock_set_gfac_vkpt                      0.000488           3
 pw_charge                               0.000467           2
 lincom                                  0.000360           3
 fewald                                  0.000345           3
 fock_set_fsg                            0.000321           2
 proall                                  0.000318           1
 orth1                                   0.000308           3
 proj                                    0.000255           1
 proj1                                   0.000251           6
 orthch                                  0.000227           1
 fock_ace_construct                      0.000222           1
 pdssyex_zheevx                          0.000213           1
 w1_copy                                 0.000145          16
 rpromu_hf                               0.000132           6
 racc0mu_hf                              0.000130           3
 work_mul_crexp                          0.000098          12
 phase                                   0.000062           7
 rsp                                     0.000057           3
 apply_gfac_weight                       0.000046           1
 crexp_mul_wave                          0.000045           6
 calc_dllmm_trans                        0.000038          18
 crpa_reader                             0.000020           1
 rcp                                     0.000014           3
 densta                                  0.000012           2
 choleski                                0.000011           2
 depsum                                  0.000004           2
 overl                                   0.000004           2
 wrk_deallocate                          0.000003           1
 overl_fock                              0.000002          12
 overl1                                  0.000002          12
 FERMAT_RAZOR                            0.000001           1
 eccp_nl_fock                            0.000001           3
 potlok_metagga                          0.000001           2
 vectorpot                               0.000000           2
 shift_bands_between_low_high            0.000000           1
 waitgth                                 0.000000           2
 reduce                                  0.000000           2
 contraction                             0.000000           3
 waitred                                 0.000000           2
 rotate_active_occupied_orbital          0.000000           1
 redis_pw_over_bands                     0.000000           1
 set_dd_magatom                          0.000000           3
 phaser_hf                               0.000000           3
 ---------------------------------------------------------------
 
Profiling took   0.001799  0.001711  0.001702  0.001679 seconds
Profiling took   0.000151 seconds
