 vasp.6.3.0 20Jan22 (build Dec  8 2022 17:40:58) gamma-only                      
 executed on             LinuxGNU date 2025.05.20  13:22:27
 running on    4 total cores
 distrk:  each k-point on    4 cores,    1 groups
 distr:  one band on NCORE=   1 cores,    4 groups


--------------------------------------------------------------------------------------------------------


 INCAR:
   ENCUT = 1000
   SIGMA = 0.001
   EDIFF = 1E-6
   LHFCALC = .TRUE.
   AEXX = 1.0
   ISYM = -1
   ALGO = sub
   NELM = 1
   NBANDS = 10779
   ISYM = -1
   PREC = Accurate

 POTCAR:    PAW_PBE He_GW 23Feb2015               
 POTCAR:    PAW_PBE He_GW 23Feb2015               
   SHA256 =  3abac926d96e91498f3915cb010d0fbb15fe9ea31a649aacf98be39d0884cf70 He_GW/POTCAR          
   COPYR  = (c) Copyright 23Feb2015 Georg Kresse                                                    
   COPYR  = This file is part of the software VASP. Any use, copying, and all other rights are regul
   COPYR  = If you do not have a valid VASP license, you may not use, copy or distribute this file. 
   VRHFIN =He: 1s                                                                                   
   LEXCH  = PE                                                                                      
   EATOM  =    78.7251 eV,    5.7861 Ry                                                             
                                                                                                    
   TITEL  = PAW_PBE He_GW 23Feb2015                                                                 
   LULTRA =        F    use ultrasoft PP ?                                                          
   IUNSCR =        0    unscreen: 0-lin 1-nonlin 2-no                                               
   RPACOR =    0.000    partial core radius                                                         
   POMASS =    4.000; ZVAL   =    2.000    mass and valenz                                          
   RCORE  =    1.200    outmost cutoff radius                                                       
   RWIGS  =    1.200; RWIGS  =    0.635    wigner-seitz radius (au A)                               
   ENMAX  =  405.780; ENMIN  =  304.335 eV                                                          
   RCLOC  =    0.703    cutoff for local pot                                                        
   LCOR   =        T    correct aug charges                                                         
   LPAW   =        T    paw PP                                                                      
   EAUG   = 1514.192                                                                                
   RMAX   =    1.224    core radius for proj-oper                                                   
   RAUG   =    1.200    factor for augmentation sphere                                              
   RDEP   =    1.261    radius for radial grids                                                     
   RDEPT  =    1.051    core radius for aug-charge                                                  
                                                                                                    
   Atomic configuration                                                                             
    3 entries                                                                                       
     n  l   j            E        occ.                                                              
     1  0  0.50       -15.7639   2.0000                                                             
     2  1  0.50        -2.8912   0.0000                                                             
     3  2  1.50        -2.8912   0.0000                                                             
   Description                                                                                      
     l       E           TYP  RCUT    TYP  RCUT                                                     
     0    -15.7638891     23  1.200                                                                 
     0     27.2116520     23  1.200                                                                 
     1     -6.8029130     23  1.200                                                                 
     1     81.6349560     23  1.200                                                                 
     1    476.2039100     23  1.200                                                                 
     2     81.6349560     23  1.200                                                                 
     2    142.8611730     23  1.200                                                                 
  local pseudopotential read in
  kinetic energy density of atom read in
  atomic valenz-charges read in
  non local Contribution for L=           0  read in
    real space projection operators read in
  non local Contribution for L=           0  read in
    real space projection operators read in
  non local Contribution for L=           1  read in
    real space projection operators read in
  non local Contribution for L=           1  read in
    real space projection operators read in
  non local Contribution for L=           1  read in
    real space projection operators read in
  non local Contribution for L=           2  read in
    real space projection operators read in
  non local Contribution for L=           2  read in
    real space projection operators read in
    PAW grid and wavefunctions read in

   number of l-projection  operators is LMAX  =           7
   number of lm-projection operators is LMMAX =          21

  PAW_PBE He_GW 23Feb2015               :
 energy of atom  1       EATOM=  -78.7251
 kinetic energy error for atom=    0.0004 (will be added to EATOM!!)


 POSCAR: He
  positions in cartesian coordinates
  No initial velocities read in
 exchange correlation table for  LEXCH =        8
   RHO(1)=    0.500       N(1)  =     2000
   RHO(2)=  100.500       N(2)  =     4000



--------------------------------------------------------------------------------------------------------


 ion  position               nearest neighbor table
   1  0.000  0.000  0.000-


IMPORTANT INFORMATION: All symmetrisations will be switched off!
NOSYMM: (Re-)initialisation of all symmetry stuff for point group C_1.


----------------------------------------------------------------------------------------

                                     Primitive cell                                     

  volume of cell :     148.1845

  direct lattice vectors                    reciprocal lattice vectors
     5.291770000  0.000000000  0.000000000     0.188972688  0.000000000  0.000000000
     0.000000000  5.291770000  0.000000000     0.000000000  0.188972688  0.000000000
     0.000000000  0.000000000  5.291770000     0.000000000  0.000000000  0.188972688

  length of vectors
     5.291770000  5.291770000  5.291770000     0.188972688  0.188972688  0.188972688

  position of ions in fractional coordinates (direct lattice)
     0.000000000  0.000000000  0.000000000

  ion indices of the primitive-cell ions
   primitive index   ion index
                 1           1

----------------------------------------------------------------------------------------



 KPOINTS: Automatically generated mesh            

Automatic generation of k-mesh.
 Grid dimensions read from file:
 generate k-points for:    1    1    1

 Generating k-lattice:

  Cartesian coordinates                     Fractional coordinates (reciprocal lattice)
     0.188972688  0.000000000  0.000000000     1.000000000  0.000000000  0.000000000
     0.000000000  0.188972688  0.000000000     0.000000000  1.000000000  0.000000000
     0.000000000  0.000000000  0.188972688     0.000000000  0.000000000  1.000000000

  Length of vectors
     0.188972688  0.188972688  0.188972688

  Shift w.r.t. Gamma in fractional coordinates (k-lattice)
     0.000000000  0.000000000  0.000000000

 
 Subroutine IBZKPT returns following result:
 ===========================================
 
 Found      1 irreducible k-points:
 
 Following reciprocal coordinates:
            Coordinates               Weight
  0.000000  0.000000  0.000000      1.000000
 
 Following cartesian coordinates:
            Coordinates               Weight
  0.000000  0.000000  0.000000      1.000000
 
 WARNING: full set of k-points will be restricted to regular points only.

 
 Subroutine IBZKPT_HF returns following result:
 ==============================================
 
 Found      1 k-points in 1st BZ
 the following      1 k-points will be used (e.g. in the exchange kernel)
 Following reciprocal coordinates:   # in IRBZ
  0.000000  0.000000  0.000000    1.00000000   1 t-inv F
 -----------------------------------------------------------------------------
|                                                                             |
|           W    W    AA    RRRRR   N    N  II  N    N   GGGG   !!!           |
|           W    W   A  A   R    R  NN   N  II  NN   N  G    G  !!!           |
|           W    W  A    A  R    R  N N  N  II  N N  N  G       !!!           |
|           W WW W  AAAAAA  RRRRR   N  N N  II  N  N N  G  GGG   !            |
|           WW  WW  A    A  R   R   N   NN  II  N   NN  G    G                |
|           W    W  A    A  R    R  N    N  II  N    N   GGGG   !!!           |
|                                                                             |
|     The number of bands has been changed from the values supplied in        |
|     the INCAR file. This is a result of running the parallel version.       |
|     The orbitals not found in the WAVECAR file will be initialized with     |
|     random numbers, which is usually adequate. For correlated               |
|     calculations, however, you should redo the groundstate calculation.     |
|     I found NBANDS = 10779. Now, NBANDS = 10780.                            |
|                                                                             |
 -----------------------------------------------------------------------------



--------------------------------------------------------------------------------------------------------




 Dimension of arrays:
   k-points           NKPTS =      1   k-points in BZ     NKDIM =      1   number of bands    NBANDS=  10780
   number of dos      NEDOS =    301   number of ions     NIONS =      1
   non local maximal  LDIM  =      7   non local SUM 2l+1 LMDIM =     21
   total plane-waves  NPLWV = 175616
   max r-space proj   IRMAX =      1   max aug-charges    IRDMAX=   8484
   dimension x,y,z NGX =    56 NGY =   56 NGZ =   56
   dimension x,y,z NGXF=   112 NGYF=  112 NGZF=  112
   support grid    NGXF=   112 NGYF=  112 NGZF=  112
   ions per type =               1
   NGX,Y,Z   is equivalent  to a cutoff of  17.59, 17.59, 17.59 a.u.
   NGXF,Y,Z  is equivalent  to a cutoff of  35.19, 35.19, 35.19 a.u.

 SYSTEM =  unknown system                          
 POSCAR =  He                                      

 Startparameter for this run:
   NWRITE =      2    write-flag & timer
   PREC   = accura    normal or accurate (medium, high low for compatibility)
   ISTART =      1    job   : 0-new  1-cont  2-samecut
   ICHARG =      0    charge: 1-file 2-atom 10-const
   ISPIN  =      1    spin polarized calculation?
   LNONCOLLINEAR =      F non collinear calculations
   LSORBIT =      F    spin-orbit coupling
   INIWAV =      1    electr: 0-lowe 1-rand  2-diag
   LASPH  =      F    aspherical Exc in radial PAW
 Electronic Relaxation 1
   ENCUT  = 1000.0 eV  73.50 Ry    8.57 a.u.  13.64 13.64 13.64*2*pi/ulx,y,z
   ENINI  = 1000.0     initial cutoff
   ENAUG  = 1514.2 eV  augmentation charge cutoff
   NELM   =      1;   NELMIN=  2; NELMDL=  0     # of ELM steps 
   EDIFF  = 0.1E-05   stopping-criterion for ELM
   LREAL  =      F    real-space projection
   NLSPLINE    = F    spline interpolate recip. space projectors
   LCOMPAT=      F    compatible to vasp.4.4
   GGA_COMPAT  = T    GGA compatible to vasp.4.4-vasp.4.6
   LMAXPAW     = -100 max onsite density
   LMAXMIX     =    2 max onsite mixed and CHGCAR
   VOSKOWN=      0    Vosko Wilk Nusair interpolation
   ROPT   =    0.00000
 Ionic relaxation
   EDIFFG = 0.1E-04   stopping-criterion for IOM
   NSW    =      0    number of steps for IOM
   NBLOCK =      1;   KBLOCK =      1    inner block; outer block 
   IBRION =     -1    ionic relax: 0-MD 1-quasi-New 2-CG
   NFREE  =      0    steps in history (QN), initial steepest desc. (CG)
   ISIF   =      0    stress and relaxation
   IWAVPR =     10    prediction:  0-non 1-charg 2-wave 3-comb
   ISYM   =     -1    0-nonsym 1-usesym 2-fastsym
   LCORR  =      T    Harris-Foulkes like correction to forces

   POTIM  = 0.5000    time-step for ionic-motion
   TEIN   =    0.0    initial temperature
   TEBEG  =    0.0;   TEEND  =   0.0 temperature during run
   SMASS  =  -3.00    Nose mass-parameter (am)
   estimated Nose-frequenzy (Omega)   =  0.10E-29 period in steps = 0.13E+47 mass=  -0.640E-27a.u.
   SCALEE = 1.0000    scale energy and forces
   NPACO  =    256;   APACO  = 10.0  distance and # of slots for P.C.
   PSTRESS=    0.0 pullay stress

  Mass of Ions in am
   POMASS =   4.00
  Ionic Valenz
   ZVAL   =   2.00
  Atomic Wigner-Seitz radii
   RWIGS  =  -1.00
  virtual crystal weights 
   VCA    =   1.00
   NELECT =       2.0000    total number of electrons
   NUPDOWN=      -1.0000    fix difference up-down

 DOS related values:
   EMIN   =  10.00;   EMAX   =-10.00  energy-range for DOS
   EFERMI =   0.00
   ISMEAR =     1;   SIGMA  =   0.00  broadening in eV -4-tet -1-fermi 0-gaus

 Electronic relaxation 2 (details)
   IALGO  =      4    algorithm
   LDIAG  =      T    sub-space diagonalisation (order eigenvalues)
   LSUBROT=      F    optimize rotation matrix (better conditioning)
   TURBO    =      0    0=normal 1=particle mesh
   IRESTART =      0    0=no restart 2=restart with 2 vectors
   NREBOOT  =      0    no. of reboots
   NMIN     =      0    reboot dimension
   EREF     =   0.00    reference energy to select bands
   IMIX   =      1    mixing-type and parameters
     AMIX     =   0.40;   BMIX     =  1.00
     AMIX_MAG =   1.60;   BMIX_MAG =  1.00
     AMIN     =   0.10
     WC   =   100.;   INIMIX=   1;  MIXPRE=   1;  MAXMIX= -45

 Intra band minimization:
   WEIMIN = 0.0000     energy-eigenvalue tresh-hold
   EBREAK =  0.23E-10  absolut break condition
   DEPER  =   0.30     relativ break condition  

   TIME   =   0.40     timestep for ELM

  volume/ion in A,a.u.               =     148.18      1000.00
  Fermi-wavevector in a.u.,A,eV,Ry     =   0.389778  0.736573  2.067090  0.151927
  Thomas-Fermi vector in A             =   1.331259

 Write flags
   LWAVE        =      T    write WAVECAR
   LDOWNSAMPLE  =      F    k-point downsampling of WAVECAR
   LCHARG       =      T    write CHGCAR
   LVTOT        =      F    write LOCPOT, total local potential
   LVHAR        =      F    write LOCPOT, Hartree potential only
   LELF         =      F    write electronic localiz. function (ELF)
   LORBIT       =      0    0 simple, 1 ext, 2 COOP (PROOUT), +10 PAW based schemes


 Dipole corrections
   LMONO  =      F    monopole corrections only (constant potential shift)
   LDIPOL =      F    correct potential (dipole corrections)
   IDIPOL =      0    1-x, 2-y, 3-z, 4-all directions 
   EPSILON=  1.0000000 bulk dielectric constant

 Exchange correlation treatment:
   GGA     =    --    GGA type
   LEXCH   =     8    internal setting for exchange type
   LIBXC   =     F    Libxc                    
   VOSKOWN =     0    Vosko Wilk Nusair interpolation
   EXXOEP  =     0    0=HF, 1=EXX-LHF (local Hartree Fock) 2=EXX OEP
   LHFCALC =     T    Hartree Fock is set to
   LSYMGRAD=     F    symmetrize gradient (conserves proper symmetry)
   PRECFOCK=normal    Normal, Fast or Accurate (Low or Medium for compatibility)
   LRHFCALC=     F    long range Hartree Fock
   LRSCOR  =     F    long range correlation only (use DFT for short range part)
   LTHOMAS =     F    Thomas Fermi screening in HF
   LMODELHF=     F    short range full HF, long range fraction AEXX
   LFOCKACE=     T    use Adeptively-Compressed-Exchange operator
   ENCUT4O =  -1.0   cutoff for four orbital integrals eV
   LMAXFOCK=     4    L truncation for augmentation on plane wave grid
   LMAXFOCKAE=  -1    L truncation for all-electron charge restoration on plane wave grid
   NMAXFOCKAE=   1    number of basis functions for all-electron charge restoration
   LFOCKAEDFT=     F  apply the AE augmentation even for DFT
   NKREDX  =     1    reduce k-point grid by
   NKREDY  =     1    reduce k-point grid by
   NKREDZ  =     1    reduce k-point grid by
   SHIFTRED=     F    shift reduced grid of Gamma
   HFKIDENT=     F    idential grid for each k-point
   ODDONLY =     F    use only odd q-grid points
   EVENONLY=     F    use only even q-grid points
   HFALPHA =   -1.0000 decay constant for conv. correction
   MCALPHA =    0.0000 extent of test-charge in conv. correction in multipole expansion
   AEXX    =    1.0000 exact exchange contribution
   HFSCREEN=    0.0000 screening length (either q_TF or 0.3 A-1)
   HFSCREENC=   0.0000 screening length for correlation (either q_TF or 0.3 A-1)
   HFRCUT  =    0.0000 spherical cutoff for potential kernel
   HFRCUTSOFT=    0.0000 smooth spherical cutoff for potential kernel
   ERFCRAY_SCREEN=    0.0000 screening factor for erfc+rayleigh like screening for potential kernel
   RAYLEXP=    0.0000  rayleigh exponent in erfc+rayleigh like screening
   ALDAX   =    0.0000 LDA exchange part
   AGGAX   =    0.0000 GGA exchange part
   ALDAC   =    0.0000 LDA correlation
   AGGAC   =    0.0000 GGA correlation
   ENCUTFOCK=  -1.0 apply spherical cutoff to Coloumb kernel
   NBANDSGWLOW=     1    first orbital included in HF term
   NBLOCK_FOCK=    64    blocking factor in FOCK_ACC

 Linear response parameters
   LEPSILON=     F    determine dielectric tensor
   LRPA    =     F    only Hartree local field effects (RPA)
   LNABLA  =     F    use nabla operator in PAW spheres
   LVEL    =     F    velocity operator in full k-point grid
   CSHIFT  =0.1000    complex shift for real part using Kramers Kronig
   OMEGAMAX=  -1.0    maximum frequency
   DEG_THRESHOLD= 0.2000000E-02 threshold for treating states as degnerate
   RTIME   =   -0.100 relaxation time in fs
  (WPLASMAI=    0.000 imaginary part of plasma frequency in eV, 0.658/RTIME)
   DFIELD  = 0.0000000 0.0000000 0.0000000 field for delta impulse in time

  Optional k-point grid parameters
   LKPOINTS_OPT  =     F    use optional k-point grid
   KPOINTS_OPT_MODE=     1    mode for optional k-point grid

 Orbital magnetization related:
   ORBITALMAG=     F  switch on orbital magnetization
   LCHIMAG   =     F  perturbation theory with respect to B field
   DQ        =  0.001000  dq finite difference perturbation B field
   LLRAUG    =     F  two centre corrections for induced B field



--------------------------------------------------------------------------------------------------------


 Static calculation
 charge density and potential will be updated during run
 non-spin polarized calculation
 Subrot: only subspace diagonalization (rotation)
    band-by band algorithm
 perform sub-space diagonalisation
    before iterative eigenvector-optimisation
 Kerker-like  mixing scheme
 using additional bands        10779
 reciprocal scheme for non local part
 calculate Harris-corrections to forces   (improved forces if not selfconsistent)
 use gradient corrections 
 use of overlap-Matrix (Vanderbilt PP)
 Methfessel and Paxton  Order N= 1 SIGMA  =   0.00


--------------------------------------------------------------------------------------------------------


  energy-cutoff  :     1000.00
  volume of cell :      148.18
      direct lattice vectors                 reciprocal lattice vectors
     5.291770000  0.000000000  0.000000000     0.188972688  0.000000000  0.000000000
     0.000000000  5.291770000  0.000000000     0.000000000  0.188972688  0.000000000
     0.000000000  0.000000000  5.291770000     0.000000000  0.000000000  0.188972688

  length of vectors
     5.291770000  5.291770000  5.291770000     0.188972688  0.188972688  0.188972688



 old parameters found on file WAVECAR:
  energy-cutoff  :     1000.00
  volume of cell :      148.18
      direct lattice vectors                 reciprocal lattice vectors
     5.291770000  0.000000000  0.000000000     0.188972688  0.000000000  0.000000000
     0.000000000  5.291770000  0.000000000     0.000000000  0.188972688  0.000000000
     0.000000000  0.000000000  5.291770000     0.000000000  0.000000000  0.188972688

  length of vectors


 k-points in units of 2pi/SCALE and weight: Automatically generated mesh            
   0.00000000  0.00000000  0.00000000       1.000

 k-points in reciprocal lattice and weights: Automatically generated mesh            
   0.00000000  0.00000000  0.00000000       1.000

 position of ions in fractional coordinates (direct lattice) 
   0.00000000  0.00000000  0.00000000

 position of ions in cartesian coordinates  (Angst):
   0.00000000  0.00000000  0.00000000



--------------------------------------------------------------------------------------------------------


 use serial FFT for orbitals x direction half grid
 k-point   1 :   0.0000 0.0000 0.0000  plane waves:    5390

 maximum and minimum number of plane-waves per node :      5390     5390

 maximum number of plane-waves:      5390
 maximum index in each direction: 
   IXMAX=   13   IYMAX=   13   IZMAX=   13
   IXMIN=    0   IYMIN=  -13   IZMIN=  -13


 serial   3D FFT for wavefunctions
 parallel 3D FFT for charge:
    minimum data exchange during FFTs selected (reduces bandwidth)


 FFT grid for exact exchange (Hartree Fock) 
  NGX = 42; NGY = 42; NGZ = 42

 use serial FFT for orbitals x direction half grid

 Radii for the augmentation spheres in the non-local exchange
 for species   1 augmentation radius   0.734 (default was   0.587)
       energy cutoff for augmentation   4000.0
 Maximum index for augmentation-charges in exchange          799
  SETUP_FOCK is finished

 total amount of memory used by VASP MPI-rank0   301132. kBytes
=======================================================================

   base      :      30000. kBytes
   nonl-proj :        992. kBytes
   fftplans  :      12713. kBytes
   grid      :      24134. kBytes
   one-center:         10. kBytes
   HF        :         88. kBytes
   nonlr-proj:        175. kBytes
   wavefun   :     233020. kBytes

     INWAV:  cpu time      2.5045: real time      2.5054
 charge density for first step will be calculated from the start-wavefunctions


--------------------------------------------------------------------------------------------------------


 Maximum index for augmentation-charges         2023 (set IRDMAX)


--------------------------------------------------------------------------------------------------------


 initial charge from wavefunction
    FEWALD:  cpu time      0.0000: real time      0.0000


--------------------------------------- Iteration      1(   1)  ---------------------------------------


    POTLOK:  cpu time      0.1910: real time      0.1917
    SETDIJ:  cpu time      0.0067: real time      0.0067
    EDDIAG:  cpu time    310.7535: real time    311.4498
       DOS:  cpu time      0.0006: real time      0.0007
    --------------------------------------------
      LOOP:  cpu time    310.9519: real time    311.6490

 eigenvalue-minimisations  :     0
 total energy-change (2. order) :-0.1750114E+00  ( 0.0000000E+00)
 number of electron       2.0000001 magnetization 
 augmentation part        0.2968489 magnetization 

 Free energy of the ion-electron system (eV)
  ---------------------------------------------------
  alpha Z        PSCENC =         0.06842487
  Ewald energy   TEWEN  =       -15.44151768
  -Hartree energ DENC   =       -38.78632089
  -exchange      EXHF   =        27.27409088
  -V(xc)+E(xc)   XCENC  =         0.00000000
  PAW double counting   =        54.99355837      -56.02539918
  entropy T*S    EENTRO =         0.00000000
  eigenvalues    EBANDS =       -50.08805277
  atomic energy  EATOM  =        77.83020501
  Solvation  Ediel_sol  =         0.00000000
  ---------------------------------------------------
  free energy    TOTEN  =        -0.17501140 eV

  energy without entropy =       -0.17501140  energy(sigma->0) =       -0.17501140
  exchange ACFDT corr.  =         0.00000000  see jH, gK, PRB 81, 115126


--------------------------------------------------------------------------------------------------------




 average (electrostatic) potential at core
  the test charge radii are     0.5871
  (the norm of the test charge is              1.0000)
       1 -25.9184



 E-fermi : -22.7365     XC(G=0):   0.0000     alpha+bet : -0.1095

 Fermi energy:       -22.7364866108

 k-point     1 :       0.0000    0.0000    0.0000
  band No.  band energies     occupation 
      1     -25.0440      2.00000
      2       0.5097      0.00000
      3       5.3598      0.00000
      4       5.3598      0.00000
      5       5.3598      0.00000
      6       5.4645      0.00000
      7       5.4645      0.00000
      8       6.9327      0.00000
      9      10.5184      0.00000
     10      10.5184      0.00000
     11      10.5184      0.00000
     12      10.8202      0.00000
     13      10.8202      0.00000
     14      10.8202      0.00000
     15      10.8324      0.00000
     16      10.8324      0.00000
     17      10.8431      0.00000
     18      10.8431      0.00000
     19      10.8431      0.00000
     20      13.6498      0.00000
     21      15.9696      0.00000
     22      15.9696      0.00000
     23      15.9696      0.00000
     24      16.1803      0.00000
     25      16.1803      0.00000
     26      16.1803      0.00000
     27      16.2085      0.00000
     28      18.6777      0.00000
     29      21.3678      0.00000
     30      21.3678      0.00000
     31      21.3678      0.00000
     32      21.5311      0.00000
     33      21.5311      0.00000
     34      22.8292      0.00000
     35      26.1446      0.00000
     36      26.1446      0.00000
     37      26.1446      0.00000
     38      26.8223      0.00000
     39      26.8223      0.00000
     40      26.8729      0.00000
     41      26.8729      0.00000
     42      26.8729      0.00000
     43      26.9367      0.00000
     44      26.9367      0.00000
     45      26.9367      0.00000
     46      26.9460      0.00000
     47      26.9460      0.00000
     48      26.9460      0.00000
     49      26.9566      0.00000
     50      26.9566      0.00000
     51      26.9566      0.00000
     52      26.9574      0.00000
     53      26.9574      0.00000
     54      26.9602      0.00000
     55      26.9602      0.00000
     56      26.9602      0.00000
     57      26.9609      0.00000
     58      29.8887      0.00000
     59      31.6520      0.00000
     60      31.6520      0.00000
     61      31.6520      0.00000
     62      32.1834      0.00000
     63      32.1834      0.00000
     64      32.1834      0.00000
     65      32.2590      0.00000
     66      32.2590      0.00000
     67      32.2896      0.00000
     68      32.3140      0.00000
     69      32.3140      0.00000
     70      32.3140      0.00000
     71      32.3160      0.00000
     72      32.3160      0.00000
     73      32.3160      0.00000
     74      32.3262      0.00000
     75      32.3262      0.00000
     76      32.3262      0.00000
     77      32.3274      0.00000
     78      32.3274      0.00000
     79      32.3274      0.00000
     80      32.3303      0.00000
     81      32.3303      0.00000
     82      39.4510      0.00000
     83      42.6533      0.00000
     84      42.6533      0.00000
     85      42.6533      0.00000
     86      42.9821      0.00000
     87      42.9821      0.00000
     88      42.9821      0.00000
     89      43.0198      0.00000
     90      43.0198      0.00000
     91      43.0401      0.00000
     92      43.0401      0.00000
     93      43.0401      0.00000
     94      44.9295      0.00000
     95      47.5216      0.00000
     96      47.5216      0.00000
     97      47.5216      0.00000
     98      48.2273      0.00000
     99      48.2273      0.00000
    100      48.2273      0.00000
    101      48.3081      0.00000
    102      48.3081      0.00000
    103      48.3668      0.00000
    104      48.4030      0.00000
    105      48.4031      0.00000
    106      48.4031      0.00000
    107      48.4161      0.00000
    108      48.4161      0.00000
    109      48.4161      0.00000
    110      48.4265      0.00000
    111      48.4340      0.00000
    112      48.4340      0.00000
    113      48.4348      0.00000
    114      48.4348      0.00000
    115      48.4348      0.00000
    116      48.4419      0.00000
    117      48.4419      0.00000
    118      48.4419      0.00000
    119      48.4425      0.00000
    120      48.4425      0.00000
    121      48.4425      0.00000
    122      48.4432      0.00000
    123      48.4432      0.00000
    124      51.6574      0.00000
    125      53.1412      0.00000
    126      53.1413      0.00000
    127      53.1413      0.00000
    128      53.5351      0.00000
    129      53.5351      0.00000
    130      53.7456      0.00000
    131      53.7456      0.00000
    132      53.7456      0.00000
    133      53.7836      0.00000
    134      53.7837      0.00000
    135      53.7837      0.00000
    136      53.7860      0.00000
    137      53.7861      0.00000
    138      53.7861      0.00000
    139      53.8018      0.00000
    140      53.8018      0.00000
    141      53.8018      0.00000
    142      53.8127      0.00000
    143      53.8127      0.00000
    144      53.8148      0.00000
    145      53.8148      0.00000
    146      53.8148      0.00000
    147      53.8163      0.00000
    148      57.2167      0.00000
    149      58.5848      0.00000
    150      58.5849      0.00000
    151      58.5849      0.00000
    152      58.9915      0.00000
    153      58.9915      0.00000
    154      59.0648      0.00000
    155      59.0648      0.00000
    156      59.0648      0.00000
    157      59.1394      0.00000
    158      59.1394      0.00000
    159      59.1394      0.00000
    160      59.1503      0.00000
    161      59.1503      0.00000
    162      59.1503      0.00000
    163      59.1588      0.00000
    164      59.1654      0.00000
    165      59.1655      0.00000
    166      59.1655      0.00000
    167      59.1783      0.00000
    168      59.1783      0.00000
    169      59.1783      0.00000
    170      59.1820      0.00000
    171      59.1820      0.00000
    172      63.5161      0.00000
    173      64.3231      0.00000
    174      64.3232      0.00000
    175      64.3232      0.00000
    176      64.4600      0.00000
    177      64.4600      0.00000
    178      64.4600      0.00000
    179      64.5027      0.00000
    180      67.0752      0.00000
    181      69.2440      0.00000
    182      69.2440      0.00000
    183      69.2440      0.00000
    184      69.7391      0.00000
    185      69.7391      0.00000
    186      69.7391      0.00000
    187      69.7700      0.00000
    188      69.7700      0.00000
    189      69.8409      0.00000
    190      69.8409      0.00000
    191      69.8409      0.00000
    192      69.9070      0.00000
    193      69.9070      0.00000
    194      69.9070      0.00000
    195      69.9133      0.00000
    196      69.9133      0.00000
    197      69.9191      0.00000
    198      69.9191      0.00000
    199      69.9191      0.00000
    200      69.9249      0.00000
    201      69.9250      0.00000
    202      69.9250      0.00000
    203      69.9277      0.00000
    204      72.5215      0.00000
    205      74.2221      0.00000
    206      74.2221      0.00000
    207      74.2221      0.00000
    208      74.9065      0.00000
    209      74.9065      0.00000
    210      74.9065      0.00000
    211      75.0889      0.00000
    212      75.0889      0.00000
    213      75.1671      0.00000
    214      75.1904      0.00000
    215      75.1905      0.00000
    216      75.1905      0.00000
    217      75.2392      0.00000
    218      75.2392      0.00000
    219      75.2392      0.00000
    220      75.2622      0.00000
    221      75.2622      0.00000
    222      75.2622      0.00000
    223      75.2693      0.00000
    224      75.2693      0.00000
    225      75.2693      0.00000
    226      75.2840      0.00000
    227      75.2841      0.00000
    228      75.2859      0.00000
    229      75.2859      0.00000
    230      75.2951      0.00000
    231      75.2952      0.00000
    232      75.2952      0.00000
    233      75.2954      0.00000
    234      75.2954      0.00000
    235      75.2954      0.00000
    236      75.2990      0.00000
    237      75.2990      0.00000
    238      75.2990      0.00000
    239      75.2999      0.00000
    240      75.2999      0.00000
    241      75.2999      0.00000
    242      75.3006      0.00000
    243      75.3014      0.00000
    244      75.3014      0.00000
    245      75.3022      0.00000
    246      75.3023      0.00000
    247      75.3023      0.00000
    248      75.3029      0.00000
    249      75.3029      0.00000
    250      75.3029      0.00000
    251      75.3032      0.00000
    252      84.5446      0.00000
    253      85.8283      0.00000
    254      85.8283      0.00000
    255      85.8283      0.00000
    256      85.9199      0.00000
    257      85.9199      0.00000
    258      87.3914      0.00000
    259      90.1792      0.00000
    260      90.1792      0.00000
    261      90.1792      0.00000
    262      90.9995      0.00000
    263      90.9995      0.00000
    264      91.0878      0.00000
    265      91.0878      0.00000
    266      91.0878      0.00000
    267      91.2448      0.00000
    268      91.2583      0.00000
    269      91.2583      0.00000
    270      91.2583      0.00000
    271      91.3378      0.00000
    272      91.3647      0.00000
    273      91.3648      0.00000
    274      91.3648      0.00000
    275      91.3842      0.00000
    276      91.3842      0.00000
    277      91.3842      0.00000
    278      91.3879      0.00000
    279      91.3879      0.00000
    280      91.3879      0.00000
    281      91.3990      0.00000
    282      91.3990      0.00000
    283      91.3990      0.00000
    284      91.4058      0.00000
    285      91.4058      0.00000
    286      91.4072      0.00000
    287      91.4072      0.00000
    288      91.4098      0.00000
    289      91.4098      0.00000
    290      91.4098      0.00000
    291      91.4111      0.00000
    292      91.4111      0.00000
    293      91.4111      0.00000
    294      91.4121      0.00000
    295      91.4121      0.00000
    296      91.4121      0.00000
    297      91.4125      0.00000
    298      91.4125      0.00000
    299      91.4125      0.00000
    300      91.4142      0.00000
    301      91.4142      0.00000
    302      91.4145      0.00000
    303      91.4146      0.00000
    304      91.4146      0.00000
    305      91.4147      0.00000
    306      94.8781      0.00000
    307      96.0350      0.00000
    308      96.0351      0.00000
    309      96.0351      0.00000
    310      96.4585      0.00000
    311      96.4585      0.00000
    312      96.5843      0.00000
    313      96.5843      0.00000
    314      96.5843      0.00000
    315      96.6856      0.00000
    316      96.6857      0.00000
    317      96.6857      0.00000
    318      96.7033      0.00000
    319      96.7033      0.00000
    320      96.7033      0.00000
    321      96.7487      0.00000
    322      96.7487      0.00000
    323      96.7509      0.00000
    324      96.7509      0.00000
    325      96.7509      0.00000
    326      96.7635      0.00000
    327      96.7690      0.00000
    328      96.7718      0.00000
    329      96.7718      0.00000
    330      96.7718      0.00000
    331      96.7740      0.00000
    332      96.7741      0.00000
    333      96.7741      0.00000
    334      96.7756      0.00000
    335      96.7756      0.00000
    336      96.7756      0.00000
    337      96.7784      0.00000
    338      96.7784      0.00000
    339      96.7784      0.00000
    340      96.7787      0.00000
    341      96.7788      0.00000
    342     100.7213      0.00000
    343     101.6383      0.00000
    344     101.6383      0.00000
    345     101.6383      0.00000
    346     101.9261      0.00000
    347     101.9261      0.00000
    348     101.9261      0.00000
    349     102.0476      0.00000
    350     102.0476      0.00000
    351     102.0668      0.00000
    352     102.0669      0.00000
    353     102.0669      0.00000
    354     102.0868      0.00000
    355     102.1291      0.00000
    356     102.1291      0.00000
    357     102.1291      0.00000
    358     102.1385      0.00000
    359     102.1386      0.00000
    360     102.1386      0.00000
    361     102.1465      0.00000
    362     102.1465      0.00000
    363     102.1465      0.00000
    364     102.1470      0.00000
    365     102.1471      0.00000
    366     105.8778      0.00000
    367     107.0001      0.00000
    368     107.0002      0.00000
    369     107.0002      0.00000
    370     107.3077      0.00000
    371     107.3077      0.00000
    372     107.3781      0.00000
    373     107.3781      0.00000
    374     107.3781      0.00000
    375     107.4449      0.00000
    376     107.4449      0.00000
    377     107.4449      0.00000
    378     107.4693      0.00000
    379     107.4693      0.00000
    380     107.4693      0.00000
    381     107.4933      0.00000
    382     107.4933      0.00000
    383     107.4933      0.00000
    384     107.4991      0.00000
    385     107.4991      0.00000
    386     107.5115      0.00000
    387     107.5115      0.00000
    388     107.5115      0.00000
    389     107.5173      0.00000
    390     110.5571      0.00000
    391     111.9747      0.00000
    392     111.9747      0.00000
    393     111.9747      0.00000
    394     112.5532      0.00000
    395     112.5532      0.00000
    396     112.5746      0.00000
    397     112.5747      0.00000
    398     112.5747      0.00000
    399     112.7617      0.00000
    400     112.7618      0.00000
    401     112.7618      0.00000
    402     112.7708      0.00000
    403     112.7709      0.00000
    404     112.7709      0.00000
    405     112.8056      0.00000
    406     112.8218      0.00000
    407     112.8218      0.00000
    408     112.8218      0.00000
    409     112.8556      0.00000
    410     112.8556      0.00000
    411     112.8556      0.00000
    412     112.8701      0.00000
    413     112.8701      0.00000
    414     112.8733      0.00000
    415     112.8733      0.00000
    416     112.8826      0.00000
    417     112.8826      0.00000
    418     112.8826      0.00000
    419     112.8917      0.00000
    420     112.8937      0.00000
    421     112.8937      0.00000
    422     112.8937      0.00000
    423     112.8956      0.00000
    424     112.8956      0.00000
    425     112.8956      0.00000
    426     112.8969      0.00000
    427     112.8969      0.00000
    428     112.8969      0.00000
    429     112.8987      0.00000
    430     112.8987      0.00000
    431     112.8987      0.00000
    432     112.8998      0.00000
    433     112.8999      0.00000
    434     112.9009      0.00000
    435     112.9009      0.00000
    436     112.9009      0.00000
    437     112.9015      0.00000
    438     117.1735      0.00000
    439     117.7807      0.00000
    440     117.7807      0.00000
    441     117.7807      0.00000
    442     117.9794      0.00000
    443     117.9794      0.00000
    444     117.9794      0.00000
    445     118.0720      0.00000
    446     118.2431      0.00000
    447     118.2431      0.00000
    448     118.2485      0.00000
    449     118.2486      0.00000
    450     118.2486      0.00000
    451     118.2557      0.00000
    452     118.2557      0.00000
    453     118.2557      0.00000
    454     118.2578      0.00000
    455     118.2578      0.00000
    456     118.2578      0.00000
    457     118.2629      0.00000
    458     118.2629      0.00000
    459     118.2629      0.00000
    460     118.2635      0.00000
    461     118.2635      0.00000
    462     126.6221      0.00000
    463     128.4538      0.00000
    464     128.4539      0.00000
    465     128.4539      0.00000
    466     128.7880      0.00000
    467     128.7880      0.00000
    468     128.7880      0.00000
    469     128.8907      0.00000
    470     128.8929      0.00000
    471     128.8929      0.00000
    472     128.9510      0.00000
    473     128.9510      0.00000
    474     128.9510      0.00000
    475     128.9577      0.00000
    476     128.9577      0.00000
    477     128.9577      0.00000
    478     128.9740      0.00000
    479     128.9740      0.00000
    480     128.9740      0.00000
    481     128.9784      0.00000
    482     128.9784      0.00000
    483     128.9784      0.00000
    484     128.9871      0.00000
    485     128.9871      0.00000
    486     131.9967      0.00000
    487     133.6774      0.00000
    488     133.6775      0.00000
    489     133.6775      0.00000
    490     134.1125      0.00000
    491     134.1125      0.00000
    492     134.1496      0.00000
    493     134.1496      0.00000
    494     134.1496      0.00000
    495     134.2387      0.00000
    496     134.2387      0.00000
    497     134.2387      0.00000
    498     134.3108      0.00000
    499     134.3109      0.00000
    500     134.3109      0.00000
    501     134.3143      0.00000
    502     134.3143      0.00000
    503     134.3398      0.00000
    504     134.3721      0.00000
    505     134.3721      0.00000
    506     134.3721      0.00000
    507     134.3762      0.00000
    508     134.3762      0.00000
    509     134.3762      0.00000
    510     134.3763      0.00000
    511     134.3763      0.00000
    512     134.3763      0.00000
    513     134.3788      0.00000
    514     134.3788      0.00000
    515     134.3789      0.00000
    516     136.8205      0.00000
    517     138.4429      0.00000
    518     138.4431      0.00000
    519     138.4431      0.00000
    520     139.1602      0.00000
    521     139.1602      0.00000
    522     139.3044      0.00000
    523     139.3044      0.00000
    524     139.3044      0.00000
    525     139.5322      0.00000
    526     139.5322      0.00000
    527     139.5322      0.00000
    528     139.5501      0.00000
    529     139.5501      0.00000
    530     139.5501      0.00000
    531     139.6325      0.00000
    532     139.6325      0.00000
    533     139.6401      0.00000
    534     139.6404      0.00000
    535     139.6957      0.00000
    536     139.6957      0.00000
    537     139.6957      0.00000
    538     139.6999      0.00000
    539     139.6999      0.00000
    540     139.6999      0.00000
    541     139.7153      0.00000
    542     139.7153      0.00000
    543     139.7153      0.00000
    544     139.7276      0.00000
    545     139.7278      0.00000
    546     139.7295      0.00000
    547     139.7295      0.00000
    548     139.7295      0.00000
    549     139.7348      0.00000
    550     139.7348      0.00000
    551     139.7348      0.00000
    552     139.7377      0.00000
    553     139.7377      0.00000
    554     139.7377      0.00000
    555     139.7448      0.00000
    556     139.7448      0.00000
    557     139.7449      0.00000
    558     139.7449      0.00000
    559     139.7449      0.00000
    560     139.7463      0.00000
    561     139.7524      0.00000
    562     139.7525      0.00000
    563     139.7525      0.00000
    564     139.7525      0.00000
    565     139.7525      0.00000
    566     139.7525      0.00000
    567     139.7536      0.00000
    568     139.7536      0.00000
    569     139.7536      0.00000
    570     139.7539      0.00000
    571     139.7540      0.00000
    572     139.7547      0.00000
    573     139.7547      0.00000
    574     139.7547      0.00000
    575     139.7555      0.00000
    576     139.7556      0.00000
    577     139.7556      0.00000
    578     139.7569      0.00000
    579     139.7569      0.00000
    580     139.7569      0.00000
    581     139.7576      0.00000
    582     139.7582      0.00000
    583     139.7582      0.00000
    584     139.7583      0.00000
    585     139.7585      0.00000
    586     139.7585      0.00000
    587     139.7588      0.00000
    588     143.9933      0.00000
    589     144.5975      0.00000
    590     144.5976      0.00000
    591     144.5976      0.00000
    592     144.8007      0.00000
    593     144.8007      0.00000
    594     144.9721      0.00000
    595     144.9721      0.00000
    596     144.9721      0.00000
    597     145.0123      0.00000
    598     145.0124      0.00000
    599     145.0124      0.00000
    600     145.0318      0.00000
    601     145.0631      0.00000
    602     145.0790      0.00000
    603     145.0791      0.00000
    604     145.0791      0.00000
    605     145.0857      0.00000
    606     145.0857      0.00000
    607     145.0857      0.00000
    608     145.0957      0.00000
    609     145.0957      0.00000
    610     145.0957      0.00000
    611     145.0998      0.00000
    612     145.0998      0.00000
    613     145.0998      0.00000
    614     145.1202      0.00000
    615     145.1202      0.00000
    616     145.1214      0.00000
    617     145.1214      0.00000
    618     145.1214      0.00000
    619     145.1230      0.00000
    620     152.2622      0.00000
    621     154.5281      0.00000
    622     154.5282      0.00000
    623     154.5282      0.00000
    624     155.2632      0.00000
    625     155.2632      0.00000
    626     155.2632      0.00000
    627     155.4829      0.00000
    628     155.4829      0.00000
    629     155.5326      0.00000
    630     155.6781      0.00000
    631     155.6781      0.00000
    632     155.6781      0.00000
    633     155.7030      0.00000
    634     155.7030      0.00000
    635     155.7030      0.00000
    636     155.7719      0.00000
    637     155.7719      0.00000
    638     155.7719      0.00000
    639     155.7841      0.00000
    640     155.7841      0.00000
    641     155.7841      0.00000
    642     155.7914      0.00000
    643     155.8149      0.00000
    644     155.8149      0.00000
    645     155.8238      0.00000
    646     155.8239      0.00000
    647     155.8295      0.00000
    648     155.8295      0.00000
    649     155.8295      0.00000
    650     155.8385      0.00000
    651     155.8387      0.00000
    652     155.8387      0.00000
    653     155.8408      0.00000
    654     155.8409      0.00000
    655     155.8409      0.00000
    656     155.8456      0.00000
    657     155.8456      0.00000
    658     155.8456      0.00000
    659     155.8513      0.00000
    660     155.8513      0.00000
    661     155.8513      0.00000
    662     155.8513      0.00000
    663     155.8557      0.00000
    664     155.8557      0.00000
    665     155.8579      0.00000
    666     155.8580      0.00000
    667     155.8580      0.00000
    668     155.8672      0.00000
    669     155.8672      0.00000
    670     155.8672      0.00000
    671     155.8680      0.00000
    672     155.8681      0.00000
    673     155.8686      0.00000
    674     155.8688      0.00000
    675     155.8688      0.00000
    676     155.8695      0.00000
    677     155.8696      0.00000
    678     155.8696      0.00000
    679     155.8696      0.00000
    680     155.8697      0.00000
    681     155.8697      0.00000
    682     155.8701      0.00000
    683     155.8701      0.00000
    684     155.8729      0.00000
    685     155.8729      0.00000
    686     155.8729      0.00000
    687     155.8729      0.00000
    688     155.8730      0.00000
    689     155.8731      0.00000
    690     155.8731      0.00000
    691     155.8732      0.00000
    692     159.8134      0.00000
    693     160.5239      0.00000
    694     160.5240      0.00000
    695     160.5240      0.00000
    696     160.7985      0.00000
    697     160.7985      0.00000
    698     160.9981      0.00000
    699     160.9981      0.00000
    700     160.9981      0.00000
    701     161.0819      0.00000
    702     161.0820      0.00000
    703     161.0820      0.00000
    704     161.0918      0.00000
    705     161.0919      0.00000
    706     161.0919      0.00000
    707     161.1285      0.00000
    708     161.1286      0.00000
    709     161.1286      0.00000
    710     161.1792      0.00000
    711     161.1980      0.00000
    712     161.1980      0.00000
    713     161.1980      0.00000
    714     161.2051      0.00000
    715     161.2052      0.00000
    716     161.2152      0.00000
    717     161.2152      0.00000
    718     161.2203      0.00000
    719     161.2203      0.00000
    720     161.2203      0.00000
    721     161.2271      0.00000
    722     161.2371      0.00000
    723     161.2372      0.00000
    724     161.2372      0.00000
    725     161.2377      0.00000
    726     161.2377      0.00000
    727     161.2377      0.00000
    728     161.2389      0.00000
    729     161.2389      0.00000
    730     161.2389      0.00000
    731     161.2392      0.00000
    732     161.2393      0.00000
    733     161.2393      0.00000
    734     161.2424      0.00000
    735     161.2425      0.00000
    736     161.2427      0.00000
    737     161.2428      0.00000
    738     161.2428      0.00000
    739     161.2431      0.00000
    740     171.0016      0.00000
    741     171.7208      0.00000
    742     171.7208      0.00000
    743     171.7208      0.00000
    744     171.8491      0.00000
    745     171.8491      0.00000
    746     171.8491      0.00000
    747     171.8821      0.00000
    748     171.8821      0.00000
    749     171.8932      0.00000
    750     171.8932      0.00000
    751     171.8932      0.00000
    752     174.6633      0.00000
    753     176.4382      0.00000
    754     176.4384      0.00000
    755     176.4384      0.00000
    756     176.9490      0.00000
    757     176.9490      0.00000
    758     176.9490      0.00000
    759     177.0709      0.00000
    760     177.0709      0.00000
    761     177.1679      0.00000
    762     177.1681      0.00000
    763     177.1681      0.00000
    764     177.2117      0.00000
    765     177.2502      0.00000
    766     177.2504      0.00000
    767     177.2504      0.00000
    768     177.2800      0.00000
    769     177.2800      0.00000
    770     177.2800      0.00000
    771     177.2849      0.00000
    772     177.2849      0.00000
    773     177.2849      0.00000
    774     177.3011      0.00000
    775     177.3011      0.00000
    776     177.3075      0.00000
    777     177.3075      0.00000
    778     177.3242      0.00000
    779     177.3242      0.00000
    780     177.3242      0.00000
    781     177.3269      0.00000
    782     177.3270      0.00000
    783     177.3270      0.00000
    784     177.3327      0.00000
    785     177.3327      0.00000
    786     177.3327      0.00000
    787     177.3356      0.00000
    788     177.3450      0.00000
    789     177.3450      0.00000
    790     177.3450      0.00000
    791     177.3469      0.00000
    792     177.3470      0.00000
    793     177.3484      0.00000
    794     177.3485      0.00000
    795     177.3485      0.00000
    796     177.3511      0.00000
    797     177.3511      0.00000
    798     177.3511      0.00000
    799     177.3525      0.00000
    800     180.8330      0.00000
    801     181.9133      0.00000
    802     181.9133      0.00000
    803     181.9133      0.00000
    804     182.2959      0.00000
    805     182.2959      0.00000
    806     182.2959      0.00000
    807     182.4732      0.00000
    808     182.5199      0.00000
    809     182.5199      0.00000
    810     182.5921      0.00000
    811     182.5921      0.00000
    812     182.5921      0.00000
    813     182.6237      0.00000
    814     182.6239      0.00000
    815     182.6239      0.00000
    816     182.6381      0.00000
    817     182.6381      0.00000
    818     182.6381      0.00000
    819     182.6605      0.00000
    820     182.6750      0.00000
    821     182.6750      0.00000
    822     182.6766      0.00000
    823     182.6769      0.00000
    824     182.6769      0.00000
    825     182.6783      0.00000
    826     182.6783      0.00000
    827     182.6783      0.00000
    828     182.6946      0.00000
    829     182.6947      0.00000
    830     182.6947      0.00000
    831     182.7019      0.00000
    832     182.7162      0.00000
    833     182.7163      0.00000
    834     182.7196      0.00000
    835     182.7196      0.00000
    836     182.7196      0.00000
    837     182.7198      0.00000
    838     182.7198      0.00000
    839     182.7198      0.00000
    840     182.7210      0.00000
    841     182.7210      0.00000
    842     182.7210      0.00000
    843     182.7219      0.00000
    844     182.7219      0.00000
    845     182.7219      0.00000
    846     182.7227      0.00000
    847     182.7227      0.00000
    848     186.4574      0.00000
    849     187.3726      0.00000
    850     187.3727      0.00000
    851     187.3727      0.00000
    852     187.7594      0.00000
    853     187.7594      0.00000
    854     187.7594      0.00000
    855     187.7801      0.00000
    856     187.7801      0.00000
    857     187.9009      0.00000
    858     187.9010      0.00000
    859     187.9010      0.00000
    860     187.9793      0.00000
    861     187.9794      0.00000
    862     187.9794      0.00000
    863     188.0146      0.00000
    864     188.0146      0.00000
    865     188.0146      0.00000
    866     188.0177      0.00000
    867     188.0244      0.00000
    868     188.0244      0.00000
    869     188.0478      0.00000
    870     188.0478      0.00000
    871     188.0478      0.00000
    872     188.0517      0.00000
    873     188.0517      0.00000
    874     188.0517      0.00000
    875     188.0658      0.00000
    876     188.0662      0.00000
    877     188.0664      0.00000
    878     188.0747      0.00000
    879     188.0749      0.00000
    880     188.0749      0.00000
    881     188.0817      0.00000
    882     188.0817      0.00000
    883     188.0817      0.00000
    884     188.0857      0.00000
    885     188.0858      0.00000
    886     188.0858      0.00000
    887     188.0901      0.00000
    888     188.0901      0.00000
    889     188.0901      0.00000
    890     188.0904      0.00000
    891     188.0904      0.00000
    892     188.0938      0.00000
    893     188.0938      0.00000
    894     188.0938      0.00000
    895     188.0953      0.00000
    896     192.3708      0.00000
    897     193.0077      0.00000
    898     193.0078      0.00000
    899     193.0078      0.00000
    900     193.2271      0.00000
    901     193.2271      0.00000
    902     193.2271      0.00000
    903     193.3056      0.00000
    904     193.3056      0.00000
    905     193.3086      0.00000
    906     193.3653      0.00000
    907     193.3653      0.00000
    908     193.3653      0.00000
    909     193.3888      0.00000
    910     193.4018      0.00000
    911     193.4018      0.00000
    912     193.4018      0.00000
    913     193.4168      0.00000
    914     193.4168      0.00000
    915     193.4216      0.00000
    916     193.4216      0.00000
    917     193.4216      0.00000
    918     193.4349      0.00000
    919     193.4352      0.00000
    920     193.4352      0.00000
    921     193.4396      0.00000
    922     193.4396      0.00000
    923     193.4396      0.00000
    924     193.4402      0.00000
    925     193.4402      0.00000
    926     197.5520      0.00000
    927     198.2444      0.00000
    928     198.2445      0.00000
    929     198.2445      0.00000
    930     198.3708      0.00000
    931     198.3708      0.00000
    932     198.8045      0.00000
    933     198.8046      0.00000
    934     198.8046      0.00000
    935     198.8083      0.00000
    936     198.8083      0.00000
    937     198.8083      0.00000
    938     198.8117      0.00000
    939     198.8117      0.00000
    940     198.8117      0.00000
    941     198.8143      0.00000
    942     198.8143      0.00000
    943     198.8143      0.00000
    944     198.8411      0.00000
    945     198.8411      0.00000
    946     198.8412      0.00000
    947     198.8413      0.00000
    948     198.8413      0.00000
    949     198.8416      0.00000
    950     201.8821      0.00000
    951     203.1689      0.00000
    952     203.1690      0.00000
    953     203.1690      0.00000
    954     203.6898      0.00000
    955     203.6898      0.00000
    956     203.7645      0.00000
    957     203.7645      0.00000
    958     203.7645      0.00000
    959     203.9584      0.00000
    960     203.9585      0.00000
    961     203.9585      0.00000
    962     203.9606      0.00000
    963     204.0365      0.00000
    964     204.0369      0.00000
    965     204.0369      0.00000
    966     204.0823      0.00000
    967     204.0823      0.00000
    968     204.0823      0.00000
    969     204.0943      0.00000
    970     204.1028      0.00000
    971     204.1028      0.00000
    972     204.1028      0.00000
    973     204.1297      0.00000
    974     204.1298      0.00000
    975     204.1475      0.00000
    976     204.1476      0.00000
    977     204.1476      0.00000
    978     204.1479      0.00000
    979     204.1479      0.00000
    980     204.1873      0.00000
    981     204.1876      0.00000
    982     204.1876      0.00000
    983     204.1904      0.00000
    984     204.1905      0.00000
    985     204.1905      0.00000
    986     204.1918      0.00000
    987     204.1918      0.00000
    988     204.1918      0.00000
    989     204.1929      0.00000
    990     204.1929      0.00000
    991     204.1929      0.00000
    992     204.1953      0.00000
    993     204.1953      0.00000
    994     204.2000      0.00000
    995     204.2002      0.00000
    996     204.2002      0.00000
    997     204.2009      0.00000
    998     204.2009      0.00000
    999     204.2009      0.00000
   1000     204.2040      0.00000
   1001     204.2040      0.00000
   1002     204.2040      0.00000
   1003     204.2052      0.00000
   1004     204.2052      0.00000
   1005     204.2064      0.00000
   1006     204.2064      0.00000
   1007     204.2064      0.00000
   1008     204.2075      0.00000
   1009     204.2093      0.00000
   1010     204.2094      0.00000
   1011     204.2096      0.00000
   1012     204.2096      0.00000
   1013     204.2104      0.00000
   1014     204.2104      0.00000
   1015     204.2104      0.00000
   1016     204.2108      0.00000
   1017     204.2108      0.00000
   1018     204.2108      0.00000
   1019     204.2109      0.00000
   1020     204.2110      0.00000
   1021     204.2115      0.00000
   1022     213.2648      0.00000
   1023     214.4433      0.00000
   1024     214.4433      0.00000
   1025     214.4433      0.00000
   1026     214.6307      0.00000
   1027     214.6307      0.00000
   1028     214.8443      0.00000
   1029     214.8443      0.00000
   1030     214.8443      0.00000
   1031     214.8713      0.00000
   1032     214.8714      0.00000
   1033     214.8714      0.00000
   1034     214.8764      0.00000
   1035     214.8764      0.00000
   1036     214.8764      0.00000
   1037     214.8913      0.00000
   1038     214.8913      0.00000
   1039     214.8913      0.00000
   1040     214.9277      0.00000
   1041     214.9277      0.00000
   1042     214.9307      0.00000
   1043     214.9308      0.00000
   1044     214.9308      0.00000
   1045     214.9344      0.00000
   1046     217.1999      0.00000
   1047     218.8884      0.00000
   1048     218.8884      0.00000
   1049     218.8884      0.00000
   1050     219.6713      0.00000
   1051     219.6713      0.00000
   1052     219.6713      0.00000
   1053     219.7009      0.00000
   1054     219.7009      0.00000
   1055     220.0279      0.00000
   1056     220.0291      0.00000
   1057     220.0295      0.00000
   1058     220.0295      0.00000
   1059     220.0352      0.00000
   1060     220.0353      0.00000
   1061     220.0353      0.00000
   1062     220.1633      0.00000
   1063     220.1728      0.00000
   1064     220.1728      0.00000
   1065     220.1728      0.00000
   1066     220.1798      0.00000
   1067     220.1798      0.00000
   1068     220.1798      0.00000
   1069     220.1811      0.00000
   1070     220.1811      0.00000
   1071     220.2204      0.00000
   1072     220.2206      0.00000
   1073     220.2206      0.00000
   1074     220.2454      0.00000
   1075     220.2454      0.00000
   1076     220.2454      0.00000
   1077     220.2658      0.00000
   1078     220.2660      0.00000
   1079     220.2660      0.00000
   1080     220.2711      0.00000
   1081     220.2762      0.00000
   1082     220.2762      0.00000
   1083     220.2762      0.00000
   1084     220.2835      0.00000
   1085     220.2835      0.00000
   1086     220.2910      0.00000
   1087     220.2910      0.00000
   1088     220.2910      0.00000
   1089     220.2978      0.00000
   1090     220.2991      0.00000
   1091     220.3107      0.00000
   1092     220.3107      0.00000
   1093     220.3107      0.00000
   1094     220.3139      0.00000
   1095     220.3139      0.00000
   1096     220.3156      0.00000
   1097     220.3156      0.00000
   1098     220.3156      0.00000
   1099     220.3185      0.00000
   1100     220.3185      0.00000
   1101     220.3185      0.00000
   1102     220.3189      0.00000
   1103     220.3190      0.00000
   1104     220.3209      0.00000
   1105     220.3209      0.00000
   1106     220.3209      0.00000
   1107     220.3213      0.00000
   1108     220.3213      0.00000
   1109     220.3213      0.00000
   1110     220.3215      0.00000
   1111     220.3215      0.00000
   1112     220.3215      0.00000
   1113     220.3215      0.00000
   1114     220.3217      0.00000
   1115     220.3217      0.00000
   1116     220.3217      0.00000
   1117     220.3217      0.00000
   1118     220.3242      0.00000
   1119     220.3244      0.00000
   1120     220.3244      0.00000
   1121     220.3249      0.00000
   1122     220.3249      0.00000
   1123     220.3252      0.00000
   1124     220.3252      0.00000
   1125     220.3252      0.00000
   1126     220.3266      0.00000
   1127     220.3267      0.00000
   1128     220.3267      0.00000
   1129     220.3271      0.00000
   1130     220.3271      0.00000
   1131     220.3271      0.00000
   1132     220.3271      0.00000
   1133     220.3273      0.00000
   1134     220.3273      0.00000
   1135     220.3273      0.00000
   1136     220.3279      0.00000
   1137     220.3281      0.00000
   1138     220.3281      0.00000
   1139     220.3281      0.00000
   1140     220.3281      0.00000
   1141     220.3281      0.00000
   1142     224.4843      0.00000
   1143     225.0433      0.00000
   1144     225.0434      0.00000
   1145     225.0434      0.00000
   1146     225.2863      0.00000
   1147     225.2864      0.00000
   1148     225.2864      0.00000
   1149     225.3924      0.00000
   1150     225.3924      0.00000
   1151     225.4226      0.00000
   1152     225.4226      0.00000
   1153     225.4226      0.00000
   1154     225.6097      0.00000
   1155     225.6344      0.00000
   1156     225.6344      0.00000
   1157     225.6344      0.00000
   1158     225.6447      0.00000
   1159     225.6447      0.00000
   1160     225.6447      0.00000
   1161     225.6565      0.00000
   1162     225.6565      0.00000
   1163     225.6565      0.00000
   1164     225.6595      0.00000
   1165     225.6600      0.00000
   1166     225.6671      0.00000
   1167     225.6671      0.00000
   1168     225.6714      0.00000
   1169     225.6715      0.00000
   1170     225.6715      0.00000
   1171     225.6775      0.00000
   1172     225.6775      0.00000
   1173     225.6775      0.00000
   1174     225.6791      0.00000
   1175     225.6792      0.00000
   1176     225.6792      0.00000
   1177     225.6834      0.00000
   1178     225.6948      0.00000
   1179     225.6948      0.00000
   1180     225.6948      0.00000
   1181     225.6950      0.00000
   1182     225.6950      0.00000
   1183     225.6959      0.00000
   1184     225.6961      0.00000
   1185     225.6961      0.00000
   1186     225.6971      0.00000
   1187     225.6971      0.00000
   1188     225.6971      0.00000
   1189     225.6977      0.00000
   1190     230.3051      0.00000
   1191     230.6953      0.00000
   1192     230.6955      0.00000
   1193     230.6955      0.00000
   1194     230.8168      0.00000
   1195     230.8168      0.00000
   1196     230.8168      0.00000
   1197     230.8779      0.00000
   1198     230.9971      0.00000
   1199     230.9971      0.00000
   1200     231.0138      0.00000
   1201     231.0138      0.00000
   1202     231.0138      0.00000
   1203     231.0168      0.00000
   1204     231.0169      0.00000
   1205     231.0169      0.00000
   1206     231.0243      0.00000
   1207     231.0243      0.00000
   1208     231.0243      0.00000
   1209     231.0246      0.00000
   1210     231.0246      0.00000
   1211     231.0246      0.00000
   1212     231.0302      0.00000
   1213     231.0304      0.00000
   1214     235.4497      0.00000
   1215     236.0609      0.00000
   1216     236.0612      0.00000
   1217     236.0612      0.00000
   1218     236.2203      0.00000
   1219     236.2203      0.00000
   1220     236.2969      0.00000
   1221     236.2969      0.00000
   1222     236.2969      0.00000
   1223     236.3388      0.00000
   1224     236.3390      0.00000
   1225     236.3390      0.00000
   1226     236.3518      0.00000
   1227     236.3519      0.00000
   1228     236.3519      0.00000
   1229     236.3622      0.00000
   1230     236.3622      0.00000
   1231     236.3622      0.00000
   1232     236.3723      0.00000
   1233     236.3902      0.00000
   1234     236.3902      0.00000
   1235     236.3902      0.00000
   1236     236.3952      0.00000
   1237     236.3953      0.00000
   1238     239.6180      0.00000
   1239     240.8058      0.00000
   1240     240.8058      0.00000
   1241     240.8058      0.00000
   1242     241.2661      0.00000
   1243     241.2661      0.00000
   1244     241.2661      0.00000
   1245     241.4466      0.00000
   1246     241.4466      0.00000
   1247     241.5465      0.00000
   1248     241.5525      0.00000
   1249     241.5525      0.00000
   1250     241.5525      0.00000
   1251     241.6531      0.00000
   1252     241.6532      0.00000
   1253     241.6532      0.00000
   1254     241.6736      0.00000
   1255     241.6736      0.00000
   1256     241.6736      0.00000
   1257     241.7093      0.00000
   1258     241.7093      0.00000
   1259     241.7093      0.00000
   1260     241.7131      0.00000
   1261     241.7131      0.00000
   1262     241.7367      0.00000
   1263     241.7367      0.00000
   1264     241.7405      0.00000
   1265     241.7406      0.00000
   1266     241.7406      0.00000
   1267     241.7539      0.00000
   1268     241.7541      0.00000
   1269     241.7541      0.00000
   1270     241.7573      0.00000
   1271     241.7573      0.00000
   1272     241.7573      0.00000
   1273     241.7577      0.00000
   1274     241.7676      0.00000
   1275     241.7763      0.00000
   1276     241.7765      0.00000
   1277     241.7765      0.00000
   1278     241.7870      0.00000
   1279     241.7870      0.00000
   1280     241.7870      0.00000
   1281     241.7911      0.00000
   1282     241.7911      0.00000
   1283     241.7922      0.00000
   1284     241.7924      0.00000
   1285     241.7924      0.00000
   1286     241.8026      0.00000
   1287     241.8026      0.00000
   1288     241.8026      0.00000
   1289     241.8031      0.00000
   1290     241.8031      0.00000
   1291     241.8051      0.00000
   1292     241.8052      0.00000
   1293     241.8052      0.00000
   1294     241.8073      0.00000
   1295     241.8073      0.00000
   1296     241.8073      0.00000
   1297     241.8087      0.00000
   1298     241.8088      0.00000
   1299     241.8088      0.00000
   1300     241.8089      0.00000
   1301     241.8089      0.00000
   1302     241.8107      0.00000
   1303     241.8116      0.00000
   1304     241.8116      0.00000
   1305     241.8116      0.00000
   1306     241.8121      0.00000
   1307     241.8122      0.00000
   1308     241.8122      0.00000
   1309     241.8126      0.00000
   1310     246.0493      0.00000
   1311     246.6025      0.00000
   1312     246.6026      0.00000
   1313     246.6026      0.00000
   1314     246.8318      0.00000
   1315     246.8318      0.00000
   1316     246.9119      0.00000
   1317     246.9119      0.00000
   1318     246.9119      0.00000
   1319     247.0013      0.00000
   1320     247.0015      0.00000
   1321     247.0015      0.00000
   1322     247.0231      0.00000
   1323     247.0232      0.00000
   1324     247.0232      0.00000
   1325     247.0592      0.00000
   1326     247.0592      0.00000
   1327     247.0592      0.00000
   1328     247.1000      0.00000
   1329     247.1000      0.00000
   1330     247.1169      0.00000
   1331     247.1170      0.00000
   1332     247.1170      0.00000
   1333     247.1240      0.00000
   1334     247.1312      0.00000
   1335     247.1385      0.00000
   1336     247.1385      0.00000
   1337     247.1385      0.00000
   1338     247.1468      0.00000
   1339     247.1469      0.00000
   1340     247.1638      0.00000
   1341     247.1640      0.00000
   1342     247.1640      0.00000
   1343     247.1674      0.00000
   1344     247.1674      0.00000
   1345     247.1674      0.00000
   1346     247.1678      0.00000
   1347     247.1678      0.00000
   1348     247.1678      0.00000
   1349     247.1707      0.00000
   1350     247.1707      0.00000
   1351     247.1707      0.00000
   1352     247.1750      0.00000
   1353     247.1753      0.00000
   1354     247.1766      0.00000
   1355     247.1766      0.00000
   1356     247.1766      0.00000
   1357     247.1778      0.00000
   1358     257.3860      0.00000
   1359     257.7381      0.00000
   1360     257.7383      0.00000
   1361     257.7383      0.00000
   1362     257.7932      0.00000
   1363     257.7932      0.00000
   1364     257.7932      0.00000
   1365     257.8171      0.00000
   1366     260.6327      0.00000
   1367     262.3851      0.00000
   1368     262.3852      0.00000
   1369     262.3852      0.00000
   1370     262.8671      0.00000
   1371     262.8671      0.00000
   1372     262.9345      0.00000
   1373     262.9345      0.00000
   1374     262.9345      0.00000
   1375     263.0888      0.00000
   1376     263.0889      0.00000
   1377     263.0889      0.00000
   1378     263.1023      0.00000
   1379     263.1214      0.00000
   1380     263.1215      0.00000
   1381     263.1215      0.00000
   1382     263.1541      0.00000
   1383     263.1541      0.00000
   1384     263.1541      0.00000
   1385     263.1806      0.00000
   1386     263.1806      0.00000
   1387     263.1806      0.00000
   1388     263.1972      0.00000
   1389     263.1972      0.00000
   1390     263.2313      0.00000
   1391     263.2429      0.00000
   1392     263.2431      0.00000
   1393     263.2431      0.00000
   1394     263.2443      0.00000
   1395     263.2443      0.00000
   1396     263.2753      0.00000
   1397     263.2753      0.00000
   1398     263.2776      0.00000
   1399     263.2776      0.00000
   1400     263.2776      0.00000
   1401     263.2849      0.00000
   1402     263.2849      0.00000
   1403     263.2849      0.00000
   1404     263.2850      0.00000
   1405     263.2851      0.00000
   1406     263.2851      0.00000
   1407     263.2863      0.00000
   1408     263.2882      0.00000
   1409     263.2882      0.00000
   1410     263.2882      0.00000
   1411     263.2901      0.00000
   1412     263.2902      0.00000
   1413     263.2902      0.00000
   1414     263.2909      0.00000
   1415     263.2909      0.00000
   1416     263.2928      0.00000
   1417     263.2928      0.00000
   1418     263.2928      0.00000
   1419     263.2939      0.00000
   1420     266.3677      0.00000
   1421     267.5255      0.00000
   1422     267.5255      0.00000
   1423     267.5255      0.00000
   1424     268.0453      0.00000
   1425     268.0453      0.00000
   1426     268.0453      0.00000
   1427     268.1461      0.00000
   1428     268.1461      0.00000
   1429     268.2282      0.00000
   1430     268.3142      0.00000
   1431     268.3142      0.00000
   1432     268.3142      0.00000
   1433     268.3762      0.00000
   1434     268.5010      0.00000
   1435     268.5012      0.00000
   1436     268.5012      0.00000
   1437     268.5300      0.00000
   1438     268.5300      0.00000
   1439     268.5406      0.00000
   1440     268.5406      0.00000
   1441     268.5406      0.00000
   1442     268.5816      0.00000
   1443     268.5818      0.00000
   1444     268.5818      0.00000
   1445     268.6016      0.00000
   1446     268.6016      0.00000
   1447     268.6016      0.00000
   1448     268.6082      0.00000
   1449     268.6082      0.00000
   1450     268.6174      0.00000
   1451     268.6248      0.00000
   1452     268.6250      0.00000
   1453     268.6250      0.00000
   1454     268.6358      0.00000
   1455     268.6358      0.00000
   1456     268.6358      0.00000
   1457     268.6377      0.00000
   1458     268.6377      0.00000
   1459     268.6377      0.00000
   1460     268.6388      0.00000
   1461     268.6388      0.00000
   1462     268.6449      0.00000
   1463     268.6449      0.00000
   1464     268.6449      0.00000
   1465     268.6468      0.00000
   1466     268.6469      0.00000
   1467     268.6469      0.00000
   1468     268.6475      0.00000
   1469     268.6475      0.00000
   1470     268.6475      0.00000
   1471     268.6477      0.00000
   1472     268.6478      0.00000
   1473     268.6478      0.00000
   1474     268.6651      0.00000
   1475     268.6654      0.00000
   1476     268.6655      0.00000
   1477     268.6656      0.00000
   1478     268.6656      0.00000
   1479     268.6656      0.00000
   1480     268.6656      0.00000
   1481     268.6656      0.00000
   1482     268.6663      0.00000
   1483     268.6663      0.00000
   1484     268.6663      0.00000
   1485     268.6663      0.00000
   1486     268.6663      0.00000
   1487     268.6667      0.00000
   1488     268.6667      0.00000
   1489     268.6667      0.00000
   1490     268.6691      0.00000
   1491     268.6695      0.00000
   1492     268.6695      0.00000
   1493     268.6695      0.00000
   1494     268.6697      0.00000
   1495     268.6697      0.00000
   1496     268.6711      0.00000
   1497     268.6713      0.00000
   1498     268.6713      0.00000
   1499     268.6713      0.00000
   1500     268.6713      0.00000
   1501     268.6713      0.00000
   1502     268.6714      0.00000
   1503     268.6714      0.00000
   1504     272.8314      0.00000
   1505     273.4154      0.00000
   1506     273.4156      0.00000
   1507     273.4156      0.00000
   1508     273.6192      0.00000
   1509     273.6192      0.00000
   1510     273.7905      0.00000
   1511     273.7905      0.00000
   1512     273.7905      0.00000
   1513     273.8615      0.00000
   1514     273.8617      0.00000
   1515     273.8617      0.00000
   1516     273.8623      0.00000
   1517     273.8624      0.00000
   1518     273.8624      0.00000
   1519     273.8956      0.00000
   1520     273.8964      0.00000
   1521     273.8964      0.00000
   1522     273.9923      0.00000
   1523     273.9923      0.00000
   1524     273.9923      0.00000
   1525     273.9972      0.00000
   1526     273.9973      0.00000
   1527     273.9973      0.00000
   1528     273.9994      0.00000
   1529     274.0001      0.00000
   1530     274.0002      0.00000
   1531     274.0002      0.00000
   1532     274.0021      0.00000
   1533     274.0021      0.00000
   1534     274.0021      0.00000
   1535     274.0100      0.00000
   1536     274.0100      0.00000
   1537     274.0100      0.00000
   1538     274.0170      0.00000
   1539     274.0170      0.00000
   1540     274.0170      0.00000
   1541     274.0181      0.00000
   1542     274.0181      0.00000
   1543     274.0200      0.00000
   1544     274.0200      0.00000
   1545     274.0200      0.00000
   1546     274.0338      0.00000
   1547     274.0339      0.00000
   1548     274.0341      0.00000
   1549     274.0342      0.00000
   1550     274.0342      0.00000
   1551     274.0347      0.00000
   1552     278.5815      0.00000
   1553     279.0514      0.00000
   1554     279.0515      0.00000
   1555     279.0515      0.00000
   1556     279.2060      0.00000
   1557     279.2060      0.00000
   1558     279.2060      0.00000
   1559     279.2271      0.00000
   1560     279.2271      0.00000
   1561     279.2595      0.00000
   1562     279.2595      0.00000
   1563     279.2595      0.00000
   1564     279.3539      0.00000
   1565     279.3540      0.00000
   1566     279.3540      0.00000
   1567     279.3543      0.00000
   1568     279.3543      0.00000
   1569     279.3644      0.00000
   1570     279.3644      0.00000
   1571     279.3644      0.00000
   1572     279.3716      0.00000
   1573     279.3717      0.00000
   1574     279.3717      0.00000
   1575     279.3768      0.00000
   1576     282.6460      0.00000
   1577     283.7962      0.00000
   1578     283.7963      0.00000
   1579     283.7963      0.00000
   1580     284.2345      0.00000
   1581     284.2345      0.00000
   1582     284.3528      0.00000
   1583     284.3528      0.00000
   1584     284.3528      0.00000
   1585     284.4966      0.00000
   1586     284.4966      0.00000
   1587     284.4966      0.00000
   1588     284.5619      0.00000
   1589     284.5621      0.00000
   1590     284.5621      0.00000
   1591     284.6143      0.00000
   1592     284.6143      0.00000
   1593     284.6460      0.00000
   1594     284.6460      0.00000
   1595     284.6460      0.00000
   1596     284.6876      0.00000
   1597     284.6899      0.00000
   1598     284.6900      0.00000
   1599     284.6900      0.00000
   1600     284.7147      0.00000
   1601     284.7153      0.00000
   1602     284.7232      0.00000
   1603     284.7233      0.00000
   1604     284.7233      0.00000
   1605     284.7314      0.00000
   1606     284.7314      0.00000
   1607     284.7314      0.00000
   1608     284.7439      0.00000
   1609     284.7439      0.00000
   1610     284.7478      0.00000
   1611     284.7480      0.00000
   1612     284.7480      0.00000
   1613     284.7495      0.00000
   1614     284.7496      0.00000
   1615     284.7511      0.00000
[...]
  288          wrk_deallocate                        0.000003                          1   4
  289        fornl                                 1.148150                            1   3
  290          phase                                 0.000000                          1   4
  291          m_sumb_d                              0.001477                          2   4
  292        fordep                                0.001329                            1   3
  293          setdij_                               0.001325                          6   4
  294            m_sumb_d                              0.000038                        6   5
  295        setdij_                               0.000204                            1   3
  296          m_sumb_d                              0.000005                          1   4
  297        set_dd_magatom                        0.000000                            1   3
  298        set_dd_paw                            0.006301                            1   3
  299          m_sumb_d                              0.006295                          7   4
  300        chggra                                0.041486                            1   3
  301          fft3d_mpi                             0.025058                          3   4
  302            fftbrc_mpi                            0.023987                        3   5
  303              fftbas_plan_mpi                       0.023987                      3   6
  304                dfftw_execute                         0.010054                    9   7
  305                map_backward                          0.005362                    2   7
  306                  map_gather                            0.001424                  1   8
  307                  m_alltoallv_z                         0.000935                  1   8
  308                  map_scatter                           0.002992                  1   8
  309                map_forward                           0.008361                    4   7
  310                  map_gather                            0.003998                  2   8
  311                  m_alltoallv_z                         0.001871                  2   8
  312                  map_scatter                           0.002483                  2   8
  313          m_sumb_d                              0.000008                          2   4
  314          pothar                                0.002144                          1   4
  315            m_sumb_d                              0.000092                        1   5
  316        forhar                                0.005283                            1   3
  317          m_sumb_d                              0.000028                          1   4
  318        m_sumb_d                              0.000005                            1   3
  319        m_bcast_d                             0.000007                            2   3
  320      potlok                                0.188566                              1   2
  321        fft3d_mpi                             0.105378                           13   3
  322          fftbrc_mpi                            0.099414                         13   4
  323            fftbas_plan_mpi                       0.099407                       13   5
  324              dfftw_execute                         0.041504                     39   6
  325              map_forward                           0.025768                     14   6
  326                map_gather                            0.011812                    8   7
  327                m_alltoallv_z                         0.006251                    8   7
  328                map_scatter                           0.007668                    8   7
  329              map_backward                          0.031290                     12   6
  330                map_gather                            0.008416                    6   7
  331                m_alltoallv_z                         0.005221                    6   7
  332                map_scatter                           0.017608                    6   7
  333        ggaall_grid                           0.035005                            1   3
  334        m_sumb_d                              0.000139                            5   3
  335        pothar                                0.002104                            1   3
  336          m_sumb_d                              0.000011                          1   4
  337        m_bcast_d                             0.000352                            1   3
  338      potlok_metagga                        0.000000                              1   2
  339      set_dd_magatom                        0.000001                              1   2
  340      set_dd_paw                            0.006327                              1   2
  341        m_sumb_d                              0.006319                            7   3
  342      fft3d_mpi                             0.012370                              2   2
  343        fftbrc_mpi                            0.011616                            2   3
  344          fftbas_plan_mpi                       0.011615                          2   4
  345            dfftw_execute                         0.006643                        6   5
  346            map_forward                           0.004818                        4   5
  347              map_gather                            0.000849                      2   6
  348              m_alltoallv_z                         0.001506                      2   6
  349              map_scatter                           0.002457                      2   6
  350      densta                                0.000466                              1   2
  351        m_sumb_d                              0.000119                            6   3
 
 Flat profile
 ============
 
             routine name                   CPU           calls
 ---------------------------------------------------------------
 bg_pdssyex_zheevx                     158.198394           1
 fft3d                                  49.953535       59630
 orth1_nosubindex                       42.092847        1011
 bg_ppotrf_trtri                        29.538570           2
 lincom_slice                           27.196939         129
 total_time                              9.940038           1
 m_ireduce_z_to                          7.910223       21558
 fock_fwd                                6.553251         338
 m_ibcast_z_from                         6.230553       21559
 m_sumb_d                                5.407682       12230
 fock_charge_mu                          3.603710         339
 vhamil_trace                            3.015861       21558
 vhamil                                  2.840478        2695
 apply_gfac_exchange                     1.308885       21558
 fornl                                   1.146673           1
 fftwav                                  1.097750        8427
 gemm                                    1.032776        5390
 recon_slice                             0.875082         129
 m_bcast_z                               0.873041       10781
 projxyz                                 0.812313           1
 m_alltoall_d                            0.716383       37730
 orth1_distri                            0.503824        1011
 distri_slice                            0.360912        1011
 eddiag                                  0.299906           1
 lincom_distri                           0.280465           3
 fftext_mpi                              0.208112        8085
 fock_bck                                0.201666         338
 work_mul_crexp                          0.166383        5390
 fock_ace_construct                      0.156252           1
 racc0mu_hf                              0.131703         339
 dfftw_execute                           0.108319         105
 proj1                                   0.098212        2695
 rpromu_hf                               0.094957         342
 potlok                                  0.092590           2
 elmin                                   0.090051           1
 kinhamil                                0.078837        2695
 redis_pw                                0.076158         680
 ggaall_grid                             0.070053           2
 w1_copy                                 0.069582        5730
 map_scatter                             0.064594          39
 fock_set_gfac_vkpt                      0.063920         339
 map_gather                              0.049708          39
 fft3d_mpi                               0.037109       51238
 calc_dllmm_trans                        0.035566       21564
 m_alltoallv_z                           0.031175          39
 fock_all_dblbuf                         0.030502           2
 orthch                                  0.024823           1
 crexp_mul_wave                          0.022546        2695
 fft_and_gather                          0.021813         339
 m_ibcast_d_from                         0.017464       21562
 m_ireduce_d_to                          0.017049       21558
 chggra                                  0.014276           1
 reduce                                  0.013435         338
 overl1                                  0.007474        5390
 overl_fock                              0.006763       21558
 augmentation_charge                     0.006584           2
 vnlac0                                  0.006394        5390
 pothar                                  0.006176           3
 hamilt_local                            0.005719        2695
 forhar                                  0.005255           1
 forloc                                  0.004056           1
 force_and_stress                        0.003707           1
 fftwav_mpi                              0.002651        8427
 fftbas_plan_mpi                         0.002447          35
 setdij_                                 0.002428          10
 redis_proj                              0.002310           6
 waitgth                                 0.002089         338
 soft_charge                             0.001838           2
 set_charge                              0.001746           2
 overl                                   0.001409           2
 m_sum_g                                 0.001407        1140
 spher                                   0.001404           1
 stufak                                  0.001381           1
 depsum                                  0.001327           2
 m_bcast_d                               0.001163           8
 proj                                    0.000999           1
 waitred                                 0.000862         338
 rspher_all                              0.000691           4
 densta                                  0.000690           2
 pw_charge                               0.000482           2
 fewald                                  0.000281           3
 fft_gq                                  0.000197           2
 wrk_allocate                            0.000118           1
 map_backward                            0.000115          34
 map_forward                             0.000087          36
 phase                                   0.000068           7
 rsp                                     0.000058           3
 apply_gfac_weight                       0.000051           1
 fock_force                              0.000047           1
 phaser_hf                               0.000024         339
 set_dd_paw                              0.000021           3
 crpa_reader                             0.000017           1
 rcp                                     0.000014           3
 fftbrc_mpi                              0.000012          35
 fordep                                  0.000004           1
 FERMAT_RAZOR                            0.000004           6
 choleski                                0.000003           2
 wrk_deallocate                          0.000003           1
 eccp_nl_fock                            0.000002           3
 fock_set_fsg                            0.000002           2
 vectorpot                               0.000001           2
 proall                                  0.000001           1
 rotate_active_occupied_orbital          0.000001           1
 potlok_metagga                          0.000001           2
 set_dd_magatom                          0.000001           3
 contraction                             0.000000           3
 redis_pw_over_bands                     0.000000           1
 shift_bands_between_low_high            0.000000           1
 ---------------------------------------------------------------
  summed up times    363.95753097534180     
 
 Accumulative profile
 ====================
 
             routine name                   CPU           calls
 ---------------------------------------------------------------
 total_time                            363.957531           1
 elmin                                 311.669406           1
 eddiag                                238.058850           1
 bg_pdssyex_zheevx                     158.198394           1
 fock_all_dblbuf                        70.193466           2
 fft3d                                  49.953535       59630
 orth1_distri                           45.669533        1011
 fock_fwd                               45.437619         338
 orth1_nosubindex                       42.092847        1011
 fft3d_mpi                              40.612839       51238
 orthch                                 38.415627           1
 fock_ace_construct                     38.236577           1
 lincom_distri                          30.369666           3
 choleski                               29.538573           2
 bg_ppotrf_trtri                        29.538570           2
 lincom_slice                           27.196939         129
 fftwav_mpi                             10.734661        8427
 fftwav                                 10.732009        8427
 fft_and_gather                         10.517869         339
 fftext_mpi                             10.250058        8085
 hamilt_local                            8.324919        2695
 reduce                                  7.940706         338
 m_ireduce_z_to                          7.910223       21558
 fock_bck                                6.264867         338
 m_ibcast_z_from                         6.230553       21559
 kinhamil                                5.478723        2695
 m_sumb_d                                5.407682       12230
 m_sum_g                                 4.729130        1140
 fock_charge_mu                          3.735414         339
 vhamil_trace                            3.015861       21558
 vhamil                                  2.840478        2695
 force_and_stress                        2.047674           1
 apply_gfac_exchange                     1.308885       21558
 vnlac0                                  1.205554        5390
 fornl                                   1.148150           1
 gemm                                    1.032776        5390
 recon_slice                             0.875082         129
 m_bcast_z                               0.873041       10781
 fock_force                              0.816857           1
 projxyz                                 0.812313           1
 redis_pw                                0.766053         680
 m_alltoall_d                            0.716383       37730
 potlok                                  0.379413           2
 distri_slice                            0.360912        1011
 fftbrc_mpi                              0.256456          35
 fftbas_plan_mpi                         0.256444          35
 work_mul_crexp                          0.166383        5390
 racc0mu_hf                              0.131703         339
 proall                                  0.121825           1
 proj                                    0.121757           1
 proj1                                   0.120758        2695
 dfftw_execute                           0.108319         105
 rpromu_hf                               0.094957         342
 map_backward                            0.080946          34
 ggaall_grid                             0.070053           2
 w1_copy                                 0.069582        5730
 map_forward                             0.064733          36
 map_scatter                             0.064594          39
 fock_set_gfac_vkpt                      0.063945         339
 map_gather                              0.049708          39
 set_charge                              0.041749           2
 chggra                                  0.041486           1
 calc_dllmm_trans                        0.035566       21564
 m_alltoallv_z                           0.031175          39
 redis_proj                              0.028797           6
 augmentation_charge                     0.026382           2
 crexp_mul_wave                          0.022546        2695
 set_dd_paw                              0.018963           3
 m_ibcast_d_from                         0.017464       21562
 m_ireduce_d_to                          0.017049       21558
 soft_charge                             0.012272           2
 overl1                                  0.007474        5390
 overl_fock                              0.006763       21558
 pothar                                  0.006389           3
 forhar                                  0.005283           1
 fft_gq                                  0.004275           2
 forloc                                  0.004149           1
 setdij_                                 0.002536          10
 waitgth                                 0.002089         338
 overl                                   0.001409           2
 spher                                   0.001404           1
 stufak                                  0.001381           1
 depsum                                  0.001349           2
 fordep                                  0.001329           1
 m_bcast_d                               0.001163           8
 densta                                  0.000873           2
 waitred                                 0.000862         338
 wrk_allocate                            0.000728           1
 rspher_all                              0.000691           4
 pw_charge                               0.000482           2
 fewald                                  0.000365           3
 fock_set_fsg                            0.000328           2
 phase                                   0.000068           7
 rsp                                     0.000058           3
 apply_gfac_weight                       0.000051           1
 phaser_hf                               0.000024         339
 crpa_reader                             0.000017           1
 rcp                                     0.000014           3
 FERMAT_RAZOR                            0.000004           6
 wrk_deallocate                          0.000003           1
 eccp_nl_fock                            0.000002           3
 potlok_metagga                          0.000001           2
 set_dd_magatom                          0.000001           3
 vectorpot                               0.000001           2
 rotate_active_occupied_orbital          0.000001           1
 contraction                             0.000000           3
 redis_pw_over_bands                     0.000000           1
 shift_bands_between_low_high            0.000000           1
 ---------------------------------------------------------------
 
Profiling took   0.052902  0.026930  0.001798  0.001744 seconds
Profiling took   0.049825 seconds
