    1    1    1    1
  0.1481845E+03  0.5291770E-09  0.5291770E-09  0.5291770E-09  0.5000000E-15
   1.0000000000000000E-004
  CAR 
 unknown system                          
      2      1   2517
