       N       E                     dE             d eps       ncg     rms          rms(c)
DIA:   1    -0.175590555219E+00   -0.17559E+00    0.00000E+00     0   0.000E+00
   1 F= -.17559056E+00 E0= -.17559056E+00  d E =0.000000E+00
