 vasp.6.3.0 20Jan22 (build Dec  8 2022 17:40:58) gamma-only                      
 executed on             LinuxGNU date 2025.05.21  15:07:17
 running on    1 total cores
 distrk:  each k-point on    1 cores,    1 groups
 distr:  one band on NCORE=   1 cores,    1 groups


--------------------------------------------------------------------------------------------------------


 INCAR:
   ENCUT = 800
   SIGMA = 0.001
   EDIFF = 1E-6
   LHFCALC = .TRUE.
   AEXX = 1.0
   ALGO = C
   NELM = 10000
   ISYM = -1
   PREC = Accurate

 POTCAR:    PAW_PBE He_GW 23Feb2015               
 POTCAR:    PAW_PBE He_GW 23Feb2015               
   SHA256 =  3abac926d96e91498f3915cb010d0fbb15fe9ea31a649aacf98be39d0884cf70 He_GW/POTCAR          
   COPYR  = (c) Copyright 23Feb2015 Georg Kresse                                                    
   COPYR  = This file is part of the software VASP. Any use, copying, and all other rights are regul
   COPYR  = If you do not have a valid VASP license, you may not use, copy or distribute this file. 
   VRHFIN =He: 1s                                                                                   
   LEXCH  = PE                                                                                      
   EATOM  =    78.7251 eV,    5.7861 Ry                                                             
                                                                                                    
   TITEL  = PAW_PBE He_GW 23Feb2015                                                                 
   LULTRA =        F    use ultrasoft PP ?                                                          
   IUNSCR =        0    unscreen: 0-lin 1-nonlin 2-no                                               
   RPACOR =    0.000    partial core radius                                                         
   POMASS =    4.000; ZVAL   =    2.000    mass and valenz                                          
   RCORE  =    1.200    outmost cutoff radius                                                       
   RWIGS  =    1.200; RWIGS  =    0.635    wigner-seitz radius (au A)                               
   ENMAX  =  405.780; ENMIN  =  304.335 eV                                                          
   RCLOC  =    0.703    cutoff for local pot                                                        
   LCOR   =        T    correct aug charges                                                         
   LPAW   =        T    paw PP                                                                      
   EAUG   = 1514.192                                                                                
   RMAX   =    1.224    core radius for proj-oper                                                   
   RAUG   =    1.200    factor for augmentation sphere                                              
   RDEP   =    1.261    radius for radial grids                                                     
   RDEPT  =    1.051    core radius for aug-charge                                                  
                                                                                                    
   Atomic configuration                                                                             
    3 entries                                                                                       
     n  l   j            E        occ.                                                              
     1  0  0.50       -15.7639   2.0000                                                             
     2  1  0.50        -2.8912   0.0000                                                             
     3  2  1.50        -2.8912   0.0000                                                             
   Description                                                                                      
     l       E           TYP  RCUT    TYP  RCUT                                                     
     0    -15.7638891     23  1.200                                                                 
     0     27.2116520     23  1.200                                                                 
     1     -6.8029130     23  1.200                                                                 
     1     81.6349560     23  1.200                                                                 
     1    476.2039100     23  1.200                                                                 
     2     81.6349560     23  1.200                                                                 
     2    142.8611730     23  1.200                                                                 
  local pseudopotential read in
  kinetic energy density of atom read in
  atomic valenz-charges read in
  non local Contribution for L=           0  read in
    real space projection operators read in
  non local Contribution for L=           0  read in
    real space projection operators read in
  non local Contribution for L=           1  read in
    real space projection operators read in
  non local Contribution for L=           1  read in
    real space projection operators read in
  non local Contribution for L=           1  read in
    real space projection operators read in
  non local Contribution for L=           2  read in
    real space projection operators read in
  non local Contribution for L=           2  read in
    real space projection operators read in
    PAW grid and wavefunctions read in

   number of l-projection  operators is LMAX  =           7
   number of lm-projection operators is LMMAX =          21

  PAW_PBE He_GW 23Feb2015               :
 energy of atom  1       EATOM=  -78.7251
 kinetic energy error for atom=    0.0019 (will be added to EATOM!!)


 POSCAR: He
  positions in cartesian coordinates
  No initial velocities read in
 exchange correlation table for  LEXCH =        8
   RHO(1)=    0.500       N(1)  =     2000
   RHO(2)=  100.500       N(2)  =     4000



--------------------------------------------------------------------------------------------------------


 ion  position               nearest neighbor table
   1  0.000  0.000  0.000-


IMPORTANT INFORMATION: All symmetrisations will be switched off!
NOSYMM: (Re-)initialisation of all symmetry stuff for point group C_1.


----------------------------------------------------------------------------------------

                                     Primitive cell                                     

  volume of cell :     148.1845

  direct lattice vectors                    reciprocal lattice vectors
     5.291770000  0.000000000  0.000000000     0.188972688  0.000000000  0.000000000
     0.000000000  5.291770000  0.000000000     0.000000000  0.188972688  0.000000000
     0.000000000  0.000000000  5.291770000     0.000000000  0.000000000  0.188972688

  length of vectors
     5.291770000  5.291770000  5.291770000     0.188972688  0.188972688  0.188972688

  position of ions in fractional coordinates (direct lattice)
     0.000000000  0.000000000  0.000000000

  ion indices of the primitive-cell ions
   primitive index   ion index
                 1           1

----------------------------------------------------------------------------------------



 KPOINTS: Automatically generated mesh            

Automatic generation of k-mesh.
 Grid dimensions read from file:
 generate k-points for:    1    1    1

 Generating k-lattice:

  Cartesian coordinates                     Fractional coordinates (reciprocal lattice)
     0.188972688  0.000000000  0.000000000     1.000000000  0.000000000  0.000000000
     0.000000000  0.188972688  0.000000000     0.000000000  1.000000000  0.000000000
     0.000000000  0.000000000  0.188972688     0.000000000  0.000000000  1.000000000

  Length of vectors
     0.188972688  0.188972688  0.188972688

  Shift w.r.t. Gamma in fractional coordinates (k-lattice)
     0.000000000  0.000000000  0.000000000

 
 Subroutine IBZKPT returns following result:
 ===========================================
 
 Found      1 irreducible k-points:
 
 Following reciprocal coordinates:
            Coordinates               Weight
  0.000000  0.000000  0.000000      1.000000
 
 Following cartesian coordinates:
            Coordinates               Weight
  0.000000  0.000000  0.000000      1.000000
 
 WARNING: full set of k-points will be restricted to regular points only.

 
 Subroutine IBZKPT_HF returns following result:
 ==============================================
 
 Found      1 k-points in 1st BZ
 the following      1 k-points will be used (e.g. in the exchange kernel)
 Following reciprocal coordinates:   # in IRBZ
  0.000000  0.000000  0.000000    1.00000000   1 t-inv F


--------------------------------------------------------------------------------------------------------




 Dimension of arrays:
   k-points           NKPTS =      1   k-points in BZ     NKDIM =      1   number of bands    NBANDS=      5
   number of dos      NEDOS =    301   number of ions     NIONS =      1
   non local maximal  LDIM  =      7   non local SUM 2l+1 LMDIM =     21
   total plane-waves  NPLWV = 125000
   max r-space proj   IRMAX =      1   max aug-charges    IRDMAX=   6096
   dimension x,y,z NGX =    50 NGY =   50 NGZ =   50
   dimension x,y,z NGXF=   100 NGYF=  100 NGZF=  100
   support grid    NGXF=   100 NGYF=  100 NGZF=  100
   ions per type =               1
   NGX,Y,Z   is equivalent  to a cutoff of  15.71, 15.71, 15.71 a.u.
   NGXF,Y,Z  is equivalent  to a cutoff of  31.42, 31.42, 31.42 a.u.

 SYSTEM =  unknown system                          
 POSCAR =  He                                      

 Startparameter for this run:
   NWRITE =      2    write-flag & timer
   PREC   = accura    normal or accurate (medium, high low for compatibility)
   ISTART =      1    job   : 0-new  1-cont  2-samecut
   ICHARG =      0    charge: 1-file 2-atom 10-const
   ISPIN  =      1    spin polarized calculation?
   LNONCOLLINEAR =      F non collinear calculations
   LSORBIT =      F    spin-orbit coupling
   INIWAV =      1    electr: 0-lowe 1-rand  2-diag
   LASPH  =      F    aspherical Exc in radial PAW
 Electronic Relaxation 1
   ENCUT  =  800.0 eV  58.80 Ry    7.67 a.u.  12.20 12.20 12.20*2*pi/ulx,y,z
   ENINI  =  800.0     initial cutoff
   ENAUG  = 1514.2 eV  augmentation charge cutoff
   NELM   =  10000;   NELMIN=  2; NELMDL=  0     # of ELM steps 
   EDIFF  = 0.1E-05   stopping-criterion for ELM
   LREAL  =      F    real-space projection
   NLSPLINE    = F    spline interpolate recip. space projectors
   LCOMPAT=      F    compatible to vasp.4.4
   GGA_COMPAT  = T    GGA compatible to vasp.4.4-vasp.4.6
   LMAXPAW     = -100 max onsite density
   LMAXMIX     =    2 max onsite mixed and CHGCAR
   VOSKOWN=      0    Vosko Wilk Nusair interpolation
   ROPT   =    0.00000
 Ionic relaxation
   EDIFFG = 0.1E-04   stopping-criterion for IOM
   NSW    =      0    number of steps for IOM
   NBLOCK =      1;   KBLOCK =      1    inner block; outer block 
   IBRION =     -1    ionic relax: 0-MD 1-quasi-New 2-CG
   NFREE  =      0    steps in history (QN), initial steepest desc. (CG)
   ISIF   =      0    stress and relaxation
   IWAVPR =     10    prediction:  0-non 1-charg 2-wave 3-comb
   ISYM   =     -1    0-nonsym 1-usesym 2-fastsym
   LCORR  =      T    Harris-Foulkes like correction to forces

   POTIM  = 0.5000    time-step for ionic-motion
   TEIN   =    0.0    initial temperature
   TEBEG  =    0.0;   TEEND  =   0.0 temperature during run
   SMASS  =  -3.00    Nose mass-parameter (am)
   estimated Nose-frequenzy (Omega)   =  0.10E-29 period in steps = 0.13E+47 mass=  -0.640E-27a.u.
   SCALEE = 1.0000    scale energy and forces
   NPACO  =    256;   APACO  = 10.0  distance and # of slots for P.C.
   PSTRESS=    0.0 pullay stress

  Mass of Ions in am
   POMASS =   4.00
  Ionic Valenz
   ZVAL   =   2.00
  Atomic Wigner-Seitz radii
   RWIGS  =  -1.00
  virtual crystal weights 
   VCA    =   1.00
   NELECT =       2.0000    total number of electrons
   NUPDOWN=      -1.0000    fix difference up-down

 DOS related values:
   EMIN   =  10.00;   EMAX   =-10.00  energy-range for DOS
   EFERMI =   0.00
   ISMEAR =     1;   SIGMA  =   0.00  broadening in eV -4-tet -1-fermi 0-gaus

 Electronic relaxation 2 (details)
   IALGO  =     58    algorithm
   LDIAG  =      T    sub-space diagonalisation (order eigenvalues)
   LSUBROT=      F    optimize rotation matrix (better conditioning)
   TURBO    =      0    0=normal 1=particle mesh
   IRESTART =      0    0=no restart 2=restart with 2 vectors
   NREBOOT  =      0    no. of reboots
   NMIN     =      0    reboot dimension
   EREF     =   0.00    reference energy to select bands
   IMIX   =      4    mixing-type and parameters
     AMIX     =   0.40;   BMIX     =  1.00
     AMIX_MAG =   1.60;   BMIX_MAG =  1.00
     AMIN     =   0.10
     WC   =   100.;   INIMIX=   1;  MIXPRE=   1;  MAXMIX= -45

 Intra band minimization:
   WEIMIN = 0.0000     energy-eigenvalue tresh-hold
   EBREAK =  0.50E-07  absolut break condition
   DEPER  =   0.30     relativ break condition  

   TIME   =   0.40     timestep for ELM

  volume/ion in A,a.u.               =     148.18      1000.00
  Fermi-wavevector in a.u.,A,eV,Ry     =   0.389778  0.736573  2.067090  0.151927
  Thomas-Fermi vector in A             =   1.331259

 Write flags
   LWAVE        =      T    write WAVECAR
   LDOWNSAMPLE  =      F    k-point downsampling of WAVECAR
   LCHARG       =      T    write CHGCAR
   LVTOT        =      F    write LOCPOT, total local potential
   LVHAR        =      F    write LOCPOT, Hartree potential only
   LELF         =      F    write electronic localiz. function (ELF)
   LORBIT       =      0    0 simple, 1 ext, 2 COOP (PROOUT), +10 PAW based schemes


 Dipole corrections
   LMONO  =      F    monopole corrections only (constant potential shift)
   LDIPOL =      F    correct potential (dipole corrections)
   IDIPOL =      0    1-x, 2-y, 3-z, 4-all directions 
   EPSILON=  1.0000000 bulk dielectric constant

 Exchange correlation treatment:
   GGA     =    --    GGA type
   LEXCH   =     8    internal setting for exchange type
   LIBXC   =     F    Libxc                    
   VOSKOWN =     0    Vosko Wilk Nusair interpolation
   EXXOEP  =     0    0=HF, 1=EXX-LHF (local Hartree Fock) 2=EXX OEP
   LHFCALC =     T    Hartree Fock is set to
   LSYMGRAD=     F    symmetrize gradient (conserves proper symmetry)
   PRECFOCK=normal    Normal, Fast or Accurate (Low or Medium for compatibility)
   LRHFCALC=     F    long range Hartree Fock
   LRSCOR  =     F    long range correlation only (use DFT for short range part)
   LTHOMAS =     F    Thomas Fermi screening in HF
   LMODELHF=     F    short range full HF, long range fraction AEXX
   LFOCKACE=     T    use Adeptively-Compressed-Exchange operator
   ENCUT4O =  -1.0   cutoff for four orbital integrals eV
   LMAXFOCK=     4    L truncation for augmentation on plane wave grid
   LMAXFOCKAE=  -1    L truncation for all-electron charge restoration on plane wave grid
   NMAXFOCKAE=   1    number of basis functions for all-electron charge restoration
   LFOCKAEDFT=     F  apply the AE augmentation even for DFT
   NKREDX  =     1    reduce k-point grid by
   NKREDY  =     1    reduce k-point grid by
   NKREDZ  =     1    reduce k-point grid by
   SHIFTRED=     F    shift reduced grid of Gamma
   HFKIDENT=     F    idential grid for each k-point
   ODDONLY =     F    use only odd q-grid points
   EVENONLY=     F    use only even q-grid points
   HFALPHA =   -1.0000 decay constant for conv. correction
   MCALPHA =    0.0000 extent of test-charge in conv. correction in multipole expansion
   AEXX    =    1.0000 exact exchange contribution
   HFSCREEN=    0.0000 screening length (either q_TF or 0.3 A-1)
   HFSCREENC=   0.0000 screening length for correlation (either q_TF or 0.3 A-1)
   HFRCUT  =    0.0000 spherical cutoff for potential kernel
   HFRCUTSOFT=    0.0000 smooth spherical cutoff for potential kernel
   ERFCRAY_SCREEN=    0.0000 screening factor for erfc+rayleigh like screening for potential kernel
   RAYLEXP=    0.0000  rayleigh exponent in erfc+rayleigh like screening
   ALDAX   =    0.0000 LDA exchange part
   AGGAX   =    0.0000 GGA exchange part
   ALDAC   =    0.0000 LDA correlation
   AGGAC   =    0.0000 GGA correlation
   ENCUTFOCK=  -1.0 apply spherical cutoff to Coloumb kernel
   NBANDSGWLOW=     1    first orbital included in HF term
   NBLOCK_FOCK=    64    blocking factor in FOCK_ACC

 Linear response parameters
   LEPSILON=     F    determine dielectric tensor
   LRPA    =     F    only Hartree local field effects (RPA)
   LNABLA  =     F    use nabla operator in PAW spheres
   LVEL    =     F    velocity operator in full k-point grid
   CSHIFT  =0.1000    complex shift for real part using Kramers Kronig
   OMEGAMAX=  -1.0    maximum frequency
   DEG_THRESHOLD= 0.2000000E-02 threshold for treating states as degnerate
   RTIME   =   -0.100 relaxation time in fs
  (WPLASMAI=    0.000 imaginary part of plasma frequency in eV, 0.658/RTIME)
   DFIELD  = 0.0000000 0.0000000 0.0000000 field for delta impulse in time

  Optional k-point grid parameters
   LKPOINTS_OPT  =     F    use optional k-point grid
   KPOINTS_OPT_MODE=     1    mode for optional k-point grid

 Orbital magnetization related:
   ORBITALMAG=     F  switch on orbital magnetization
   LCHIMAG   =     F  perturbation theory with respect to B field
   DQ        =  0.001000  dq finite difference perturbation B field
   LLRAUG    =     F  two centre corrections for induced B field



--------------------------------------------------------------------------------------------------------


 Static calculation
 charge density and potential will be updated during run
 non-spin polarized calculation
 Conjugate gradient for all bands (Freysoldt, et al. PRB 79, 241103 (2009))
 preconditioned conjugated gradient                                        
 perform sub-space diagonalisation
    before iterative eigenvector-optimisation
 modified Broyden-mixing scheme, WC =      100.0
 initial mixing is a Kerker type mixing with AMIX =  0.4000 and BMIX =      1.0000
 Hartree-type preconditioning will be used
 using additional bands            4
 reciprocal scheme for non local part
 no Harris-corrections to forces 
 use gradient corrections 
 use of overlap-Matrix (Vanderbilt PP)
 Methfessel and Paxton  Order N= 1 SIGMA  =   0.00


--------------------------------------------------------------------------------------------------------


  energy-cutoff  :      800.00
  volume of cell :      148.18
      direct lattice vectors                 reciprocal lattice vectors
     5.291770000  0.000000000  0.000000000     0.188972688  0.000000000  0.000000000
     0.000000000  5.291770000  0.000000000     0.000000000  0.188972688  0.000000000
     0.000000000  0.000000000  5.291770000     0.000000000  0.000000000  0.188972688

  length of vectors
     5.291770000  5.291770000  5.291770000     0.188972688  0.188972688  0.188972688



 old parameters found on file WAVECAR:
  energy-cutoff  :      800.00
  volume of cell :      148.18
      direct lattice vectors                 reciprocal lattice vectors
     5.291770000  0.000000000  0.000000000     0.188972688  0.000000000  0.000000000
     0.000000000  5.291770000  0.000000000     0.000000000  0.188972688  0.000000000
     0.000000000  0.000000000  5.291770000     0.000000000  0.000000000  0.188972688

  length of vectors


 k-points in units of 2pi/SCALE and weight: Automatically generated mesh            
   0.00000000  0.00000000  0.00000000       1.000

 k-points in reciprocal lattice and weights: Automatically generated mesh            
   0.00000000  0.00000000  0.00000000       1.000

 position of ions in fractional coordinates (direct lattice) 
   0.00000000  0.00000000  0.00000000

 position of ions in cartesian coordinates  (Angst):
   0.00000000  0.00000000  0.00000000



--------------------------------------------------------------------------------------------------------


 use serial FFT for orbitals x direction half grid
 k-point   1 :   0.0000 0.0000 0.0000  plane waves:    3761

 maximum and minimum number of plane-waves per node :      3761     3761

 maximum number of plane-waves:      3761
 maximum index in each direction: 
   IXMAX=   12   IYMAX=   12   IZMAX=   12
   IXMIN=    0   IYMIN=  -12   IZMIN=  -12


 serial   3D FFT for wavefunctions
 parallel 3D FFT for charge:
    minimum data exchange during FFTs selected (reduces bandwidth)


 FFT grid for exact exchange (Hartree Fock) 
  NGX = 40; NGY = 40; NGZ = 40

 use serial FFT for orbitals x direction half grid

 Radii for the augmentation spheres in the non-local exchange
 for species   1 augmentation radius   0.734 (default was   0.587)
       energy cutoff for augmentation   3200.0
 Maximum index for augmentation-charges in exchange          739
  SETUP_FOCK is finished

 total amount of memory used by VASP MPI-rank0   120255. kBytes
=======================================================================

   base      :      30000. kBytes
   nonl-proj :        692. kBytes
   fftplans  :      34720. kBytes
   grid      :      53680. kBytes
   one-center:         10. kBytes
   HF        :         88. kBytes
   nonlr-proj:        162. kBytes
   wavefun   :        903. kBytes

     INWAV:  cpu time      0.0007: real time      0.0007
 Broyden mixing: mesh for mixing (old mesh)
   NGX = 25   NGY = 25   NGZ = 25
  (NGX  =100   NGY  =100   NGZ  =100)
  gives a total of  15625 points

 charge density for first step will be calculated from the start-wavefunctions


--------------------------------------------------------------------------------------------------------


 Maximum index for augmentation-charges         5743 (set IRDMAX)


--------------------------------------------------------------------------------------------------------


 initial charge from wavefunction
    FEWALD:  cpu time      0.0000: real time      0.0000


--------------------------------------- Iteration      1(   1)  ---------------------------------------


    POTLOK:  cpu time      0.3300: real time      0.3301
    SETDIJ:  cpu time      0.0066: real time      0.0066
    TRIAL :  cpu time      0.0394: real time      0.0394
    CORREC:  cpu time      0.3744: real time      0.3744
    CHARGE:  cpu time      0.0179: real time      0.0179
    --------------------------------------------
      LOOP:  cpu time      0.7710: real time      0.7717

 eigenvalue-minimisations  :     0
 total energy-change (2. order) :-0.1487418E+00  (-0.1523986E-01)
 number of electron       2.0000001 magnetization 
 augmentation part        0.2951018 magnetization 

 Free energy of the ion-electron system (eV)
  ---------------------------------------------------
  alpha Z        PSCENC =         0.06842487
  Ewald energy   TEWEN  =       -15.44151768
  -Hartree energ DENC   =       -38.23822828
  -exchange      EXHF   =        26.99992845
  -V(xc)+E(xc)   XCENC  =         0.00000000
  PAW double counting   =        53.29678481      -54.32445691
  entropy T*S    EENTRO =         0.00000000
  eigenvalues    EBANDS =       -50.33842797
  atomic energy  EATOM  =        77.82875089
  ---------------------------------------------------
  free energy    TOTEN  =        -0.14874183 eV

  energy without entropy =       -0.14874183  energy(sigma->0) =       -0.14874183
  exchange ACFDT corr.  =         0.00000000  see jH, gK, PRB 81, 115126


--------------------------------------------------------------------------------------------------------




--------------------------------------- Iteration      1(   2)  ---------------------------------------


    POTLOK:  cpu time      0.3269: real time      0.3269
    SETDIJ:  cpu time      0.0066: real time      0.0066
    TRIAL :  cpu time      0.0391: real time      0.0391
    CORREC:  cpu time      0.3726: real time      0.3726
    CHARGE:  cpu time      0.0180: real time      0.0180
    --------------------------------------------
      LOOP:  cpu time      0.7634: real time      0.7635

 eigenvalue-minimisations  :     0
 total energy-change (2. order) :-0.1518372E-01  (-0.6405526E-02)
 number of electron       2.0000001 magnetization 
 augmentation part        0.2957726 magnetization 

 Free energy of the ion-electron system (eV)
  ---------------------------------------------------
  alpha Z        PSCENC =         0.06842487
  Ewald energy   TEWEN  =       -15.44151768
  -Hartree energ DENC   =       -38.77741741
  -exchange      EXHF   =        27.27272497
  -V(xc)+E(xc)   XCENC  =         0.00000000
  PAW double counting   =        54.39797415      -55.44579745
  entropy T*S    EENTRO =         0.00000000
  eigenvalues    EBANDS =       -50.06706789
  atomic energy  EATOM  =        77.82875089
  ---------------------------------------------------
  free energy    TOTEN  =        -0.16392555 eV

  energy without entropy =       -0.16392555  energy(sigma->0) =       -0.16392555
  exchange ACFDT corr.  =         0.00000000  see jH, gK, PRB 81, 115126


--------------------------------------------------------------------------------------------------------




--------------------------------------- Iteration      1(   3)  ---------------------------------------


    POTLOK:  cpu time      0.3266: real time      0.3266
    SETDIJ:  cpu time      0.0066: real time      0.0066
    TRIAL :  cpu time      0.0390: real time      0.0390
    CORREC:  cpu time      0.3730: real time      0.3730
    CHARGE:  cpu time      0.0180: real time      0.0180
    --------------------------------------------
      LOOP:  cpu time      0.7632: real time      0.7632

 eigenvalue-minimisations  :     0
 total energy-change (2. order) :-0.6819163E-02  (-0.2781880E-02)
 number of electron       2.0000001 magnetization 
 augmentation part        0.2958061 magnetization 

 Free energy of the ion-electron system (eV)
  ---------------------------------------------------
  alpha Z        PSCENC =         0.06842487
  Ewald energy   TEWEN  =       -15.44151768
  -Hartree energ DENC   =       -38.76888050
  -exchange      EXHF   =        27.26809907
  -V(xc)+E(xc)   XCENC  =         0.00000000
  PAW double counting   =        54.61844649      -55.65859137
  entropy T*S    EENTRO =         0.00000000
  eigenvalues    EBANDS =       -50.08547648
  atomic energy  EATOM  =        77.82875089
  ---------------------------------------------------
  free energy    TOTEN  =        -0.17074472 eV

  energy without entropy =       -0.17074472  energy(sigma->0) =       -0.17074472
  exchange ACFDT corr.  =         0.00000000  see jH, gK, PRB 81, 115126


--------------------------------------------------------------------------------------------------------




--------------------------------------- Iteration      1(   4)  ---------------------------------------


    POTLOK:  cpu time      0.3277: real time      0.3277
    SETDIJ:  cpu time      0.0066: real time      0.0066
    TRIAL :  cpu time      0.0391: real time      0.0391
    CORREC:  cpu time      0.3727: real time      0.3727
    CHARGE:  cpu time      0.0179: real time      0.0179
    --------------------------------------------
      LOOP:  cpu time      0.7641: real time      0.7641

 eigenvalue-minimisations  :     0
 total energy-change (2. order) :-0.2787984E-02  (-0.1140608E-02)
 number of electron       2.0000001 magnetization 
 augmentation part        0.2963436 magnetization 

 Free energy of the ion-electron system (eV)
  ---------------------------------------------------
  alpha Z        PSCENC =         0.06842487
  Ewald energy   TEWEN  =       -15.44151768
  -Hartree energ DENC   =       -38.68147027
  -exchange      EXHF   =        27.22360071
  -V(xc)+E(xc)   XCENC  =         0.00000000
  PAW double counting   =        54.61415970      -55.64534765
  entropy T*S    EENTRO =         0.00000000
  eigenvalues    EBANDS =       -50.14013327
  atomic energy  EATOM  =        77.82875089
  ---------------------------------------------------
  free energy    TOTEN  =        -0.17353270 eV

  energy without entropy =       -0.17353270  energy(sigma->0) =       -0.17353270
  exchange ACFDT corr.  =         0.00000000  see jH, gK, PRB 81, 115126


--------------------------------------------------------------------------------------------------------




--------------------------------------- Iteration      1(   5)  ---------------------------------------


    POTLOK:  cpu time      0.3274: real time      0.3275
    SETDIJ:  cpu time      0.0066: real time      0.0066
    TRIAL :  cpu time      0.0390: real time      0.0390
    CORREC:  cpu time      0.3741: real time      0.3741
    CHARGE:  cpu time      0.0180: real time      0.0180
    --------------------------------------------
      LOOP:  cpu time      0.7652: real time      0.7653

 eigenvalue-minimisations  :     0
 total energy-change (2. order) :-0.1166758E-02  (-0.5842716E-03)
 number of electron       2.0000001 magnetization 
 augmentation part        0.2968194 magnetization 

 Free energy of the ion-electron system (eV)
  ---------------------------------------------------
  alpha Z        PSCENC =         0.06842487
  Ewald energy   TEWEN  =       -15.44151768
  -Hartree energ DENC   =       -38.70538985
  -exchange      EXHF   =        27.23572356
  -V(xc)+E(xc)   XCENC  =         0.00000000
  PAW double counting   =        54.80605568      -55.83668189
  entropy T*S    EENTRO =         0.00000000
  eigenvalues    EBANDS =       -50.13006504
  atomic energy  EATOM  =        77.82875089
  ---------------------------------------------------
  free energy    TOTEN  =        -0.17469946 eV

  energy without entropy =       -0.17469946  energy(sigma->0) =       -0.17469946
  exchange ACFDT corr.  =         0.00000000  see jH, gK, PRB 81, 115126


--------------------------------------------------------------------------------------------------------




--------------------------------------- Iteration      1(   6)  ---------------------------------------


    POTLOK:  cpu time      0.3275: real time      0.3275
    SETDIJ:  cpu time      0.0066: real time      0.0066
    TRIAL :  cpu time      0.0390: real time      0.0390
    CORREC:  cpu time      0.3726: real time      0.3726
    CHARGE:  cpu time      0.0178: real time      0.0178
    --------------------------------------------
      LOOP:  cpu time      0.7637: real time      0.7637

 eigenvalue-minimisations  :     0
 total energy-change (2. order) :-0.5893507E-03  (-0.1665839E-03)
 number of electron       2.0000001 magnetization 
 augmentation part        0.2967749 magnetization 

 Free energy of the ion-electron system (eV)
  ---------------------------------------------------
  alpha Z        PSCENC =         0.06842487
  Ewald energy   TEWEN  =       -15.44151768
  -Hartree energ DENC   =       -38.75551460
  -exchange      EXHF   =        27.26114581
  -V(xc)+E(xc)   XCENC  =         0.00000000
  PAW double counting   =        54.98007725      -56.01258853
  entropy T*S    EENTRO =         0.00000000
  eigenvalues    EBANDS =       -50.10406681
  atomic energy  EATOM  =        77.82875089
  ---------------------------------------------------
  free energy    TOTEN  =        -0.17528881 eV

  energy without entropy =       -0.17528881  energy(sigma->0) =       -0.17528881
  exchange ACFDT corr.  =         0.00000000  see jH, gK, PRB 81, 115126


--------------------------------------------------------------------------------------------------------




--------------------------------------- Iteration      1(   7)  ---------------------------------------


    POTLOK:  cpu time      0.3276: real time      0.3276
    SETDIJ:  cpu time      0.0066: real time      0.0066
    TRIAL :  cpu time      0.0390: real time      0.0390
    CORREC:  cpu time      0.3725: real time      0.3726
    CHARGE:  cpu time      0.0179: real time      0.0179
    --------------------------------------------
      LOOP:  cpu time      0.7638: real time      0.7639

 eigenvalue-minimisations  :     0
 total energy-change (2. order) :-0.1671739E-03  (-0.9641654E-04)
 number of electron       2.0000001 magnetization 
 augmentation part        0.2967917 magnetization 

 Free energy of the ion-electron system (eV)
  ---------------------------------------------------
  alpha Z        PSCENC =         0.06842487
  Ewald energy   TEWEN  =       -15.44151768
  -Hartree energ DENC   =       -38.75632599
  -exchange      EXHF   =        27.26155640
  -V(xc)+E(xc)   XCENC  =         0.00000000
  PAW double counting   =        54.96450468      -55.99734440
  entropy T*S    EENTRO =         0.00000000
  eigenvalues    EBANDS =       -50.10350475
  atomic energy  EATOM  =        77.82875089
  ---------------------------------------------------
  free energy    TOTEN  =        -0.17545598 eV

  energy without entropy =       -0.17545598  energy(sigma->0) =       -0.17545598
  exchange ACFDT corr.  =         0.00000000  see jH, gK, PRB 81, 115126


--------------------------------------------------------------------------------------------------------




--------------------------------------- Iteration      1(   8)  ---------------------------------------


    POTLOK:  cpu time      0.3276: real time      0.3276
    SETDIJ:  cpu time      0.0069: real time      0.0069
    TRIAL :  cpu time      0.0392: real time      0.0392
    CORREC:  cpu time      0.3722: real time      0.3722
    CHARGE:  cpu time      0.0178: real time      0.0178
    --------------------------------------------
      LOOP:  cpu time      0.7639: real time      0.7639

 eigenvalue-minimisations  :     0
 total energy-change (2. order) :-0.9660576E-04  (-0.2914435E-04)
 number of electron       2.0000001 magnetization 
 augmentation part        0.2967485 magnetization 

 Free energy of the ion-electron system (eV)
  ---------------------------------------------------
  alpha Z        PSCENC =         0.06842487
  Ewald energy   TEWEN  =       -15.44151768
  -Hartree energ DENC   =       -38.78127069
  -exchange      EXHF   =        27.27415801
  -V(xc)+E(xc)   XCENC  =         0.00000000
  PAW double counting   =        54.97251664      -56.00665105
  entropy T*S    EENTRO =         0.00000000
  eigenvalues    EBANDS =       -50.08996358
  atomic energy  EATOM  =        77.82875089
  ---------------------------------------------------
  free energy    TOTEN  =        -0.17555259 eV

  energy without entropy =       -0.17555259  energy(sigma->0) =       -0.17555259
  exchange ACFDT corr.  =         0.00000000  see jH, gK, PRB 81, 115126


--------------------------------------------------------------------------------------------------------




--------------------------------------- Iteration      1(   9)  ---------------------------------------


    POTLOK:  cpu time      0.3267: real time      0.3267
    SETDIJ:  cpu time      0.0066: real time      0.0066
    TRIAL :  cpu time      0.0390: real time      0.0390
    CORREC:  cpu time      0.3720: real time      0.3720
    CHARGE:  cpu time      0.0180: real time      0.0180
    --------------------------------------------
      LOOP:  cpu time      0.7625: real time      0.7625

 eigenvalue-minimisations  :     0
 total energy-change (2. order) :-0.2914817E-04  (-0.7834451E-05)
 number of electron       2.0000001 magnetization 
 augmentation part        0.2967354 magnetization 

 Free energy of the ion-electron system (eV)
  ---------------------------------------------------
  alpha Z        PSCENC =         0.06842487
  Ewald energy   TEWEN  =       -15.44151768
  -Hartree energ DENC   =       -38.78404718
  -exchange      EXHF   =        27.27556050
  -V(xc)+E(xc)   XCENC  =         0.00000000
  PAW double counting   =        54.95742759      -55.99188238
  entropy T*S    EENTRO =         0.00000000
  eigenvalues    EBANDS =       -50.08829835
  atomic energy  EATOM  =        77.82875089
  ---------------------------------------------------
  free energy    TOTEN  =        -0.17558174 eV

  energy without entropy =       -0.17558174  energy(sigma->0) =       -0.17558174
  exchange ACFDT corr.  =         0.00000000  see jH, gK, PRB 81, 115126


--------------------------------------------------------------------------------------------------------




--------------------------------------- Iteration      1(  10)  ---------------------------------------


    POTLOK:  cpu time      0.3276: real time      0.3276
    SETDIJ:  cpu time      0.0068: real time      0.0067
    TRIAL :  cpu time      0.0398: real time      0.0398
    CORREC:  cpu time      0.3727: real time      0.3728
    CHARGE:  cpu time      0.0178: real time      0.0178
    --------------------------------------------
      LOOP:  cpu time      0.7648: real time      0.7649

 eigenvalue-minimisations  :     0
 total energy-change (2. order) :-0.7833359E-05  (-0.8043676E-06)
 number of electron       2.0000001 magnetization 
 augmentation part        0.2967267 magnetization 

 Free energy of the ion-electron system (eV)
  ---------------------------------------------------
  alpha Z        PSCENC =         0.06842487
  Ewald energy   TEWEN  =       -15.44151768
  -Hartree energ DENC   =       -38.78819679
  -exchange      EXHF   =        27.27765589
  -V(xc)+E(xc)   XCENC  =         0.00000000
  PAW double counting   =        54.95311263      -55.98780914
  entropy T*S    EENTRO =         0.00000000
  eigenvalues    EBANDS =       -50.08601023
  atomic energy  EATOM  =        77.82875089
  ---------------------------------------------------
  free energy    TOTEN  =        -0.17558957 eV

  energy without entropy =       -0.17558957  energy(sigma->0) =       -0.17558957
  exchange ACFDT corr.  =         0.00000000  see jH, gK, PRB 81, 115126


--------------------------------------------------------------------------------------------------------




--------------------------------------- Iteration      1(  11)  ---------------------------------------


    POTLOK:  cpu time      0.3273: real time      0.3273
    SETDIJ:  cpu time      0.0066: real time      0.0066
    TRIAL :  cpu time      0.0392: real time      0.0392
    CORREC:  cpu time      0.3723: real time      0.3723
    EDDIAG:  cpu time      0.0249: real time      0.0249
    CHARGE:  cpu time      0.0178: real time      0.0178
    --------------------------------------------
      LOOP:  cpu time      0.7881: real time      0.7881

 eigenvalue-minimisations  :     0
 total energy-change (2. order) :-0.8043639E-06  (-0.1295129E-06)
 number of electron       2.0000001 magnetization 
 augmentation part        0.2967291 magnetization 

 Free energy of the ion-electron system (eV)
  ---------------------------------------------------
  alpha Z        PSCENC =         0.06842487
  Ewald energy   TEWEN  =       -15.44151768
  -Hartree energ DENC   =       -38.78779108
  -exchange      EXHF   =        27.27801556
  -V(xc)+E(xc)   XCENC  =         0.00000000
  PAW double counting   =        54.95001367      -55.98472696
  entropy T*S    EENTRO =         0.00000000
  eigenvalues    EBANDS =       -50.08619573
  atomic energy  EATOM  =        77.82875089
  ---------------------------------------------------
  free energy    TOTEN  =        -0.17559038 eV

  energy without entropy =       -0.17559038  energy(sigma->0) =       -0.17559038
  exchange ACFDT corr.  =         0.00000000  see jH, gK, PRB 81, 115126


--------------------------------------------------------------------------------------------------------


  average scaling for gradient   1.0835


 average (electrostatic) potential at core
  the test charge radii are     0.5871
  (the norm of the test charge is              1.0000)
       1 -25.9149



 E-fermi : -25.1480     XC(G=0):   0.0000     alpha+bet : -0.1095

 Fermi energy:       -25.1479941082

 k-point     1 :       0.0000    0.0000    0.0000
  band No.  band energies     occupation 
      1     -25.0428      2.00000
      2       0.5097      0.00000
      3       5.3598      0.00000
      4       5.3598      0.00000
      5       5.3598      0.00000


--------------------------------------------------------------------------------------------------------


 soft charge-density along one line, spin component           1
         0         1         2         3         4         5         6         7         8         9
 total charge-density along one line

 pseudopotential strength for first ion, spin component:           1
-10.112  14.835   0.000  -0.000   0.000   0.000  -0.000   0.000
 14.835 -42.800   0.000  -0.000   0.000   0.000  -0.000   0.000
  0.000   0.000  -0.631  -0.000   0.000  -1.415   0.000   0.000
 -0.000  -0.000  -0.000  -0.631  -0.000   0.000  -1.415  -0.000
  0.000   0.000   0.000  -0.000  -0.631   0.000  -0.000  -1.415
  0.000   0.000  -1.415   0.000   0.000  -1.129   0.000  -0.000
 -0.000  -0.000   0.000  -1.415  -0.000   0.000  -1.129   0.000
  0.000   0.000   0.000  -0.000  -1.415  -0.000   0.000  -1.129
  0.000  -0.000   0.289   0.000  -0.000  14.118   0.000  -0.000
 -0.000   0.000   0.000   0.289   0.000   0.000  14.118   0.000
  0.000  -0.000  -0.000   0.000   0.289  -0.000   0.000  14.118
 -0.000  -0.000  -0.000   0.000  -0.000   0.000   0.000   0.000
  0.000   0.000   0.000  -0.000   0.000  -0.000   0.000   0.000
  0.000   0.000   0.000   0.000   0.000  -0.000  -0.000  -0.000
  0.000   0.000   0.000  -0.000   0.000   0.000   0.000  -0.000
  0.000   0.000   0.000   0.000  -0.000  -0.000   0.000   0.000
 -0.000  -0.000  -0.000   0.000  -0.000   0.000  -0.000   0.000
  0.000   0.000   0.000  -0.000   0.000  -0.000   0.000  -0.000
  0.000   0.000   0.000   0.000   0.000  -0.000  -0.000  -0.000
  0.000   0.000   0.000  -0.000   0.000  -0.000   0.000  -0.000
  0.000   0.000   0.000   0.000  -0.000  -0.000  -0.000   0.000
 total augmentation occupancy for first ion, spin component:           1
  2.056   0.017  -0.000   0.000  -0.000   0.000  -0.000   0.000  -0.000   0.000  -0.000  -0.000  -0.000   0.000   0.000   0.000
  0.017   0.000  -0.000   0.000  -0.000   0.000  -0.000   0.000  -0.000   0.000  -0.000  -0.000  -0.000   0.000   0.000   0.000
 -0.000  -0.000   0.000  -0.000   0.000  -0.000   0.000  -0.000   0.000  -0.000   0.000   0.000   0.000  -0.000  -0.000  -0.000
  0.000   0.000  -0.000   0.000  -0.000   0.000  -0.000   0.000  -0.000   0.000  -0.000  -0.000  -0.000   0.000   0.000   0.000
 -0.000  -0.000   0.000  -0.000   0.000  -0.000   0.000  -0.000   0.000  -0.000   0.000   0.000   0.000  -0.000  -0.000  -0.000
  0.000   0.000  -0.000   0.000  -0.000   0.000  -0.000   0.000  -0.000   0.000  -0.000  -0.000  -0.000   0.000   0.000   0.000
 -0.000  -0.000   0.000  -0.000   0.000  -0.000   0.000  -0.000   0.000  -0.000   0.000   0.000   0.000  -0.000  -0.000  -0.000
  0.000   0.000  -0.000   0.000  -0.000   0.000  -0.000   0.000  -0.000   0.000  -0.000  -0.000  -0.000   0.000   0.000   0.000
 -0.000  -0.000   0.000  -0.000   0.000  -0.000   0.000  -0.000   0.000  -0.000   0.000   0.000   0.000  -0.000  -0.000  -0.000
  0.000   0.000  -0.000   0.000  -0.000   0.000  -0.000   0.000  -0.000   0.000  -0.000  -0.000  -0.000   0.000   0.000   0.000
 -0.000  -0.000   0.000  -0.000   0.000  -0.000   0.000  -0.000   0.000  -0.000   0.000   0.000   0.000  -0.000  -0.000  -0.000
 -0.000  -0.000   0.000  -0.000   0.000  -0.000   0.000  -0.000   0.000  -0.000   0.000   0.000   0.000  -0.000  -0.000  -0.000
 -0.000  -0.000   0.000  -0.000   0.000  -0.000   0.000  -0.000   0.000  -0.000   0.000   0.000   0.000  -0.000  -0.000  -0.000
  0.000   0.000  -0.000   0.000  -0.000   0.000  -0.000   0.000  -0.000   0.000  -0.000  -0.000  -0.000   0.000   0.000   0.000
  0.000   0.000  -0.000   0.000  -0.000   0.000  -0.000   0.000  -0.000   0.000  -0.000  -0.000  -0.000   0.000   0.000   0.000
  0.000   0.000  -0.000   0.000  -0.000   0.000  -0.000   0.000  -0.000   0.000  -0.000  -0.000  -0.000   0.000   0.000   0.000
  0.000   0.000  -0.000   0.000  -0.000   0.000  -0.000   0.000  -0.000   0.000  -0.000  -0.000  -0.000   0.000   0.000   0.000
  0.000   0.000  -0.000   0.000  -0.000   0.000  -0.000   0.000  -0.000   0.000  -0.000  -0.000  -0.000   0.000   0.000   0.000
 -0.000  -0.000   0.000  -0.000   0.000  -0.000   0.000  -0.000   0.000  -0.000   0.000   0.000   0.000  -0.000  -0.000  -0.000
 -0.000  -0.000   0.000  -0.000   0.000  -0.000   0.000  -0.000   0.000  -0.000   0.000   0.000   0.000  -0.000  -0.000  -0.000
 -0.000  -0.000   0.000  -0.000   0.000  -0.000   0.000  -0.000   0.000  -0.000   0.000   0.000   0.000  -0.000  -0.000  -0.000


------------------------ aborting loop because EDIFF is reached ----------------------------------------


    FORLOC:  cpu time      0.0110: real time      0.0110
    FORHF :  cpu time      0.0040: real time      0.0040
    FORNL :  cpu time      0.0045: real time      0.0045
    OFIELD:  cpu time      0.0074: real time      0.0074

 VOLUME and BASIS-vectors are now :
 -----------------------------------------------------------------------------
  energy-cutoff  :      800.00
  volume of cell :      148.18
      direct lattice vectors                 reciprocal lattice vectors
     5.291770000  0.000000000  0.000000000     0.188972688  0.000000000  0.000000000
     0.000000000  5.291770000  0.000000000     0.000000000  0.188972688  0.000000000
     0.000000000  0.000000000  5.291770000     0.000000000  0.000000000  0.188972688

  length of vectors
     5.291770000  5.291770000  5.291770000     0.188972688  0.188972688  0.188972688


 FORCES acting on ions:
    Electron-Ion                     Ewald-Force                    Non-Local-Force
 -----------------------------------------------------------------------------------------------
   0.375E-09 0.254E-09 -.399E-09   -.686E-17 0.172E-17 0.819E-17   0.360E-09 -.208E-09 -.504E-10
 -----------------------------------------------------------------------------------------------
   0.375E-09 0.254E-09 -.399E-09   -.686E-17 0.172E-17 0.819E-17   0.360E-09 -.208E-09 -.504E-10


 POSITION                                       TOTAL-FORCE (eV/Angst)
 -----------------------------------------------------------------------------------
      0.00000      0.00000      0.00000         0.000000      0.000000     -0.000000
 -----------------------------------------------------------------------------------
    total drift:                                0.000000      0.000000     -0.000000


--------------------------------------------------------------------------------------------------------



  FREE ENERGIE OF THE ION-ELECTRON SYSTEM (eV)
  ---------------------------------------------------
  free  energy   TOTEN  =        -0.17559038 eV

  energy  without entropy=       -0.17559038  energy(sigma->0) =       -0.17559038



--------------------------------------------------------------------------------------------------------


    POTLOK:  cpu time      0.3337: real time      0.3337


--------------------------------------------------------------------------------------------------------


 writing wavefunctions
     LOOP+:  cpu time      9.4263: real time      9.5577
    4ORBIT:  cpu time      0.0000: real time      0.0000

 total amount of memory used by VASP MPI-rank0   131099. kBytes
=======================================================================

   base      :      30000. kBytes
   nonl-proj :        692. kBytes
   fftplans  :      34720. kBytes
   grid      :      53680. kBytes
   one-center:         10. kBytes
   HF        :         88. kBytes
   nonlr-proj:        162. kBytes
   wavefun   :        903. kBytes
   fock_wrk  :      10844. kBytes

  
  
 General timing and accounting informations for this job:
 ========================================================
  
                  Total CPU time used (sec):       11.416
                            User time (sec):       11.100
                          System time (sec):        0.316
                         Elapsed time (sec):       11.934
  
                   Maximum memory used (kb):      174092.
                   Average memory used (kb):          N/A
  
                          Minor page faults:       332700
                          Major page faults:            0
                 Voluntary context switches:         1791
 
 PROFILE, used timers:     261
 =============================
 
 index                 routine                    time                            calls level
----------------------------------------------------------------------------------------------
    1    total_time                           11.934793                                1   1
    2      crpa_reader                           0.000026                              1   2
    3      rspher_all                            0.000094                              1   2
    4      fock_set_fsg                          0.000290                              1   2
    5        fewald                                0.000289                            1   3
    6          rsp                                   0.000018                          1   4
    7          rcp                                   0.000004                          1   4
    8      brgrid                                0.000962                              1   2
    9      stufak                                0.003656                              1   2
   10      spher                                 0.000866                              1   2
   11      phase                                 0.000000                              1   2
   12      densta                                0.000015                              2   2
   13      setdij_                               0.001134                              2   2
   14      vectorpot                             0.000000                              1   2
   15      proall                                0.000196                              1   2
   16        phase                                 0.000042                            1   3
   17        proj                                  0.000154                            1   3
   18          proj1                                 0.000150                          5   4
   19            crexp_mul_wave                        0.000026                        5   5
   20      orthch                                0.000140                              1   2
   21        overl                                 0.000002                            1   3
   22        orth1                                 0.000059                            1   3
   23        choleski                              0.000006                            1   3
   24        lincom                                0.000067                            1   3
   25      redis_pw_over_bands                   0.000000                              1   2
   26      set_charge                            0.022650                              1   2
   27        soft_charge                           0.004218                            1   3
   28          fftwav_mpi                            0.001435                          1   4
   29            fftwav                                0.001435                        1   5
   30              fft3d                                 0.001286                      1   6
   31          pw_charge                             0.000153                          1   4
   32          fft_gq                                0.001982                          1   4
   33            fft3d_mpi                             0.001930                        1   5
   34              fftbrc_mpi                            0.001423                      1   6
   35                fftbas_plan_mpi                       0.001423                    1   7
   36                  dfftw_execute                         0.000932                  3   8
   37                  map_backward                          0.000433                  2   8
   38                    map_gather                            0.000373                1   9
   39        depsum                                0.000001                            1   3
   40        augmentation_charge                   0.017679                            1   3
   41          fft3d_mpi                             0.012945                          1   4
   42            fftbrc_mpi                            0.012470                        1   5
   43              fftbas_plan_mpi                       0.012469                      1   6
   44                dfftw_execute                         0.008368                    3   7
   45                map_backward                          0.004020                    2   7
   46                  map_gather                            0.003393                  1   8
   47      fewald                                0.000026                              1   2
   48        rsp                                   0.000019                            1   3
   49        rcp                                   0.000004                            1   3
   50      elmin_all                             8.435486                              1   2
   51        potlok                                7.209169                           22   3
   52          fft3d_mpi                             3.071670                        286   4
   53            fftbrc_mpi                            2.908576                      286   5
   54              fftbas_plan_mpi                       2.908494                    286   6
   55                dfftw_execute                         2.259867                  858   7
   56                map_forward                           0.347683                  308   7
   57                  map_scatter                           0.240592                154   8
   58                map_backward                          0.281176                  264   7
   59                  map_gather                            0.199142                132   8
   60          ggaall_grid                           2.090380                         22   4
   61          pothar                                0.068784                         22   4
   62        potlok_metagga                        0.000003                           22   3
   63        setdij_                               0.012689                           22   3
   64        set_dd_paw                            0.132596                           22   3
   65        edwav                                 0.435559                           22   3
   66          fock_all_dblbuf                       0.173371                         11   4
   67            phase                                 0.000001                       11   5
   68            fft_and_gather                        0.042439                       11   5
   69              w1_copy                               0.000441                     55   6
   70              fftwav_mpi                            0.041950                     55   6
   71                fftwav                                0.041934                   55   7
   72                  fft3d                                 0.033440                 55   8
   73            waitgth                               0.000001                       11   5
   74            fock_fwd                              0.094808                       11   5
   75              fock_set_gfac_vkpt                    0.001559                     11   6
   76                phaser_hf                             0.000001                   11   7
   77              w1_copy                               0.000086                     11   6
   78              fftwav_mpi                            0.008437                     11   6
   79                fftwav                                0.008435                   11   7
   80                  fft3d                                 0.006675                 11   8
   81              fock_charge_mu                        0.006376                     11   6
   82                racc0mu_hf                            0.000432                   11   7
   83              fft3d_mpi                             0.053979                    110   6
   84                fft3d                                 0.053950                  110   7
   85              apply_gfac_exchange                   0.002859                     55   6
   86              vhamil_trace                          0.006039                     55   6
   87              rpromu_hf                             0.000311                     11   6
   88              calc_dllmm_trans                      0.000116                     55   6
   89              overl_fock                            0.000022                     55   6
   90            reduce                                0.000001                       11   5
   91            waitred                               0.000000                       11   5
   92            fock_bck                              0.031611                       11   5
   93              overl1                                0.000025                     55   6
   94              vnlac0                                0.002236                     55   6
   95                gemm                                  0.001926                   55   7
   96                work_mul_crexp                        0.000282                   55   7
   97              fftext_mpi                            0.028446                     55   6
   98                fft3d_mpi                             0.028073                   55   7
   99                  fft3d                                 0.028057                 55   8
  100          overl                                 0.000065                         77   4
  101          phase                                 0.000002                         11   4
  102          fftwav_mpi                            0.123979                        110   4
  103            fftwav                                0.123954                      110   5
  104              fft3d                                 0.116761                    110   6
  105          hamilt_local                          0.068840                         55   4
  106            vhamil                                0.010224                       55   5
  107            kinhamil                              0.058581                       55   5
  108              fftext_mpi                            0.058265                     55   6
  109                fft3d_mpi                             0.057816                   55   7
  110                  fft3d                                 0.057791                 55   8
  111          orth1                                 0.000767                         11   4
  112          vnlac0                                0.002413                         55   4
  113            gemm                                  0.002025                       55   5
  114            work_mul_crexp                        0.000337                       55   5
  115          proj1                                 0.001735                         55   4
  116            crexp_mul_wave                        0.000251                       55   5
  117          eccp                                  0.032012                        165   4
  118          w1_dscal                              0.003155                         55   4
  119          pdssyex_zheevx                        0.002536                         22   4
  120            FERMAT_RAZOR                          0.000001                        1   5
  121          lincom                                0.002956                         44   4
  122          orthch                                0.002556                         22   4
  123            overl                                 0.000037                       22   5
  124            orth1                                 0.001044                       22   5
  125            choleski                              0.000054                       22   5
  126            lincom                                0.001366                       22   5
  127          redis_pw_over_bands                   0.000001                         22   4
  128        densta                                0.000068                           22   3
  129        set_charge                            0.394882                           22   3
  130          soft_charge                           0.066146                         22   4
  131            fftwav_mpi                            0.025000                       22   5
  132              fftwav                                0.024992                     22   6
  133                fft3d                                 0.023468                   22   7
  134            pw_charge                             0.003351                       22   5
  135            fft_gq                                0.033283                       22   5
  136              fft3d_mpi                             0.032118                     22   6
  137                fftbrc_mpi                            0.025619                   22   7
  138                  fftbas_plan_mpi                       0.025615                 22   8
  139                    dfftw_execute                         0.019988               66   9
  140                    map_backward                          0.004543               44   9
  141                      map_gather                            0.003091             22  10
  142          depsum                                0.000037                         22   4
  143          augmentation_charge                   0.312220                         22   4
  144            fft3d_mpi                             0.245251                       22   5
  145              fftbrc_mpi                            0.234063                     22   6
  146                fftbas_plan_mpi                       0.234057                   22   7
  147                  dfftw_execute                         0.185429                 66   8
  148                  map_backward                          0.047183                 44   8
  149                    map_gather                            0.032765               22   9
  150        eddiag                                0.244085                           12   3
  151          fock_all_dblbuf                       0.161450                         12   4
  152            phase                                 0.000004                       12   5
  153            fft_and_gather                        0.033445                       12   5
  154              w1_copy                               0.000366                     60   6
  155              fftwav_mpi                            0.033036                     60   6
  156                fftwav                                0.033021                   60   7
  157                  fft3d                                 0.030418                 60   8
  158            waitgth                               0.000001                       12   5
  159            fock_fwd                              0.093167                       12   5
  160              fock_set_gfac_vkpt                    0.001750                     12   6
  161                phaser_hf                             0.000001                   12   7
  162              w1_copy                               0.000073                     12   6
  163              fftwav_mpi                            0.006634                     12   6
  164                fftwav                                0.006628                   12   7
  165                  fft3d                                 0.006130                 12   8
  166              fock_charge_mu                        0.006353                     12   6
  167                racc0mu_hf                            0.000456                   12   7
  168              fft3d_mpi                             0.058803                    120   6
  169                fft3d                                 0.058767                  120   7
  170              apply_gfac_exchange                   0.003140                     60   6
  171              vhamil_trace                          0.006737                     60   6
  172              rpromu_hf                             0.000355                     12   6
  173              calc_dllmm_trans                      0.000133                     60   6
  174              overl_fock                            0.000020                     60   6
  175            reduce                                0.000003                       12   5
  176            waitred                               0.000001                       12   5
  177            fock_bck                              0.034482                       12   5
  178              overl1                                0.000035                     60   6
  179              vnlac0                                0.002476                     60   6
  180                gemm                                  0.002137                   60   7
  181                work_mul_crexp                        0.000295                   60   7
  182              fftext_mpi                            0.030988                     60   6
  183                fft3d_mpi                             0.030569                   60   7
  184                  fft3d                                 0.030547                 60   8
  185          fftwav_mpi                            0.065780                         60   4
  186            fftwav                                0.065761                       60   5
  187              fft3d                                 0.062262                     60   6
  188          eccp                                  0.009929                         55   4
  189          w1_dot                                0.000175                         55   4
  190          overl                                 0.000002                          1   4
  191          hamilt_local                          0.006071                          5   4
  192            vhamil                                0.000816                        5   5
  193            kinhamil                              0.005252                        5   5
  194              fftext_mpi                            0.005228                      5   6
  195                fft3d_mpi                             0.005186                    5   7
  196                  fft3d                                 0.005182                  5   8
  197          orth1                                 0.000060                          1   4
  198          shift_bands_between_low_high          0.000000                          1   4
  199          pdssyex_zheevx                        0.000088                          1   4
  200          lincom                                0.000066                          1   4
  201      rotate_active_occupied_orbital        0.000001                              1   2
  202      force_and_stress                      0.027785                              1   2
  203        forloc                                0.010966                            1   3
  204        fock_force                            0.004031                            1   3
  205          wrk_allocate                          0.000571                          1   4
  206            fock_set_fsg                          0.000025                        1   5
  207              fewald                                0.000024                      1   6
  208                rsp                                   0.000018                    1   7
  209                rcp                                   0.000004                    1   7
  210            rspher_all                            0.000486                        3   5
  211          phase                                 0.000000                          1   4
  212          projxyz                               0.000996                          1   4
  213            phase                                 0.000000                        1   5
  214          fft_and_gather                        0.000563                          1   4
  215            w1_copy                               0.000005                        1   5
  216            fftwav_mpi                            0.000557                        1   5
  217              fftwav                                0.000556                      1   6
  218                fft3d                                 0.000521                    1   7
  219          fock_set_gfac_vkpt                    0.000142                          1   4
  220            phaser_hf                             0.000000                        1   5
  221          w1_copy                               0.000004                          1   4
  222          fftwav_mpi                            0.000545                          1   4
  223            fftwav                                0.000544                        1   5
  224              fft3d                                 0.000504                      1   6
  225          fock_charge_mu                        0.000109                          1   4
  226            racc0mu_hf                            0.000020                        1   5
  227          fft3d_mpi                             0.000979                          2   4
  228            fft3d                                 0.000978                        2   5
  229          apply_gfac_weight                     0.000039                          1   4
  230          rpromu_hf                             0.000048                          4   4
  231          calc_dllmm_trans                      0.000013                          6   4
  232          eccp_nl_fock                          0.000002                          3   4
  233          contraction                           0.000000                          3   4
  234          wrk_deallocate                        0.000001                          1   4
  235        fornl                                 0.001433                            1   3
  236          phase                                 0.000000                          1   4
  237        fordep                                0.003026                            1   3
  238          setdij_                               0.003022                          6   4
  239        setdij_                               0.000498                            1   3
  240        set_dd_magatom                        0.000000                            1   3
  241        set_dd_paw                            0.005977                            1   3
  242      potlok                                0.327030                              1   2
  243        fft3d_mpi                             0.139615                           13   3
  244          fftbrc_mpi                            0.132164                         13   4
  245            fftbas_plan_mpi                       0.132160                       13   5
  246              dfftw_execute                         0.102715                     39   6
  247              map_forward                           0.015785                     14   6
  248                map_scatter                           0.010920                    7   7
  249              map_backward                          0.012751                     12   6
  250                map_gather                            0.009028                    6   7
  251        ggaall_grid                           0.094729                            1   3
  252        pothar                                0.003140                            1   3
  253      potlok_metagga                        0.000000                              1   2
  254      set_dd_magatom                        0.000000                              1   2
  255      set_dd_paw                            0.006008                              1   2
  256      fft3d_mpi                             0.041232                              2   2
  257        fftbrc_mpi                            0.039134                            2   3
  258          fftbas_plan_mpi                       0.039134                          2   4
  259            dfftw_execute                         0.030422                        6   5
  260            map_forward                           0.008454                        4   5
  261              map_scatter                           0.006300                      2   6
 
 Flat profile
 ============
 
             routine name                   CPU           calls
 ---------------------------------------------------------------
 total_time                              3.067196           1
 dfftw_execute                           2.607721        1041
 ggaall_grid                             2.185109          23
 potlok                                  2.067880          23
 fft3d                                   0.516737         740
 map_scatter                             0.257812         163
 map_gather                              0.247792         184
 fft3d_mpi                               0.191445         754
 set_dd_paw                              0.144581          24
 map_forward                             0.114110         326
 map_backward                            0.102314         368
 pothar                                  0.071924          23
 augmentation_charge                     0.071703          23
 eccp                                    0.041941         220
 fftwav                                  0.025795         333
 fock_fwd                                0.024192          23
 fftbas_plan_mpi                         0.023604         347
 edwav                                   0.021170          22
 setdij_                                 0.017343          31
 set_charge                              0.017231          23
 vhamil_trace                            0.012776         115
 fock_charge_mu                          0.011930          24
 vhamil                                  0.011040          60
 forloc                                  0.010966           1
 elmin_all                               0.006435           1
 gemm                                    0.006089         170
 apply_gfac_exchange                     0.005998         115
 soft_charge                             0.005160          23
 fock_all_dblbuf                         0.004855          23
 lincom                                  0.004455          68
 stufak                                  0.003656           1
 pw_charge                               0.003504          23
 fock_set_gfac_vkpt                      0.003449          24
 w1_dscal                                0.003155          55
 pdssyex_zheevx                          0.002623          23
 orth1                                   0.001930          35
 fock_bck                                0.001888          23
 force_and_stress                        0.001854           1
 proj1                                   0.001608          60
 fornl                                   0.001433           1
 fftext_mpi                              0.001283         175
 fft_gq                                  0.001217          23
 projxyz                                 0.000996           1
 w1_copy                                 0.000974         140
 brgrid                                  0.000962           1
 work_mul_crexp                          0.000913         170
 racc0mu_hf                              0.000908          24
 spher                                   0.000866           1
 rpromu_hf                               0.000714          27
 rspher_all                              0.000580           4
 eddiag                                  0.000464          12
 kinhamil                                0.000339          60
 crexp_mul_wave                          0.000277          60
 fewald                                  0.000272           3
 calc_dllmm_trans                        0.000262         121
 w1_dot                                  0.000175          55
 vnlac0                                  0.000122         170
 overl                                   0.000107         101
 fftbrc_mpi                              0.000096         347
 fftwav_mpi                              0.000094         333
 fft_and_gather                          0.000093          24
 densta                                  0.000083          24
 orthch                                  0.000061          23
 wrk_allocate                            0.000060           1
 choleski                                0.000060          23
 overl1                                  0.000060         115
 rsp                                     0.000055           3
 phase                                   0.000049          39
 overl_fock                              0.000043         115
 apply_gfac_weight                       0.000039           1
 hamilt_local                            0.000039          60
 depsum                                  0.000039          23
 crpa_reader                             0.000026           1
 fock_force                              0.000019           1
 rcp                                     0.000012           3
 reduce                                  0.000004          23
 proj                                    0.000004           1
 fordep                                  0.000004           1
 potlok_metagga                          0.000003          23
 fock_set_fsg                            0.000002           2
 waitgth                                 0.000002          23
 phaser_hf                               0.000002          24
 eccp_nl_fock                            0.000002           3
 redis_pw_over_bands                     0.000001          23
 waitred                                 0.000001          23
 wrk_deallocate                          0.000001           1
 rotate_active_occupied_orbital          0.000001           1
 FERMAT_RAZOR                            0.000001           1
 contraction                             0.000000           3
 shift_bands_between_low_high            0.000000           1
 vectorpot                               0.000000           1
 proall                                  0.000000           1
 set_dd_magatom                          0.000000           2
 ---------------------------------------------------------------
  summed up times    11.934792995452881     
 
 Accumulative profile
 ====================
 
             routine name                   CPU           calls
 ---------------------------------------------------------------
 total_time                             11.934793           1
 elmin_all                               8.435486           1
 potlok                                  7.536199          23
 fft3d_mpi                               3.780166         754
 fftbrc_mpi                              3.353449         347
 fftbas_plan_mpi                         3.353353         347
 dfftw_execute                           2.607721        1041
 ggaall_grid                             2.185109          23
 fft3d                                   0.516737         740
 edwav                                   0.435559          22
 set_charge                              0.417532          23
 map_forward                             0.371922         326
 map_backward                            0.350106         368
 fock_all_dblbuf                         0.334821          23
 augmentation_charge                     0.329899          23
 fftwav_mpi                              0.307353         333
 fftwav                                  0.307260         333
 map_scatter                             0.257812         163
 map_gather                              0.247792         184
 eddiag                                  0.244085          12
 fock_fwd                                0.187976          23
 set_dd_paw                              0.144581          24
 fftext_mpi                              0.122927         175
 fft_and_gather                          0.076448          24
 hamilt_local                            0.074911          60
 pothar                                  0.071924          23
 soft_charge                             0.070364          23
 fock_bck                                0.066093          23
 kinhamil                                0.063833          60
 eccp                                    0.041941         220
 fft_gq                                  0.035265          23
 force_and_stress                        0.027785           1
 setdij_                                 0.017343          31
 fock_charge_mu                          0.012838          24
 vhamil_trace                            0.012776         115
 vhamil                                  0.011040          60
 forloc                                  0.010966           1
 vnlac0                                  0.007125         170
 gemm                                    0.006089         170
 apply_gfac_exchange                     0.005998         115
 lincom                                  0.004455          68
 fock_force                              0.004031           1
 stufak                                  0.003656           1
 pw_charge                               0.003504          23
 fock_set_gfac_vkpt                      0.003451          24
 w1_dscal                                0.003155          55
 fordep                                  0.003026           1
 orthch                                  0.002696          23
 pdssyex_zheevx                          0.002624          23
 orth1                                   0.001930          35
 proj1                                   0.001885          60
 fornl                                   0.001433           1
 projxyz                                 0.000996           1
 w1_copy                                 0.000974         140
 brgrid                                  0.000962           1
 work_mul_crexp                          0.000913         170
 racc0mu_hf                              0.000908          24
 spher                                   0.000866           1
 rpromu_hf                               0.000714          27
 rspher_all                              0.000580           4
 wrk_allocate                            0.000571           1
 fewald                                  0.000339           3
 fock_set_fsg                            0.000315           2
 crexp_mul_wave                          0.000277          60
 calc_dllmm_trans                        0.000262         121
 proall                                  0.000196           1
 w1_dot                                  0.000175          55
 proj                                    0.000154           1
 overl                                   0.000107         101
 densta                                  0.000083          24
 choleski                                0.000060          23
 overl1                                  0.000060         115
 rsp                                     0.000055           3
 phase                                   0.000049          39
 overl_fock                              0.000043         115
 apply_gfac_weight                       0.000039           1
 depsum                                  0.000039          23
 crpa_reader                             0.000026           1
 rcp                                     0.000012           3
 reduce                                  0.000004          23
 potlok_metagga                          0.000003          23
 waitgth                                 0.000002          23
 phaser_hf                               0.000002          24
 eccp_nl_fock                            0.000002           3
 redis_pw_over_bands                     0.000001          23
 waitred                                 0.000001          23
 wrk_deallocate                          0.000001           1
 rotate_active_occupied_orbital          0.000001           1
 FERMAT_RAZOR                            0.000001           1
 vectorpot                               0.000000           1
 shift_bands_between_low_high            0.000000           1
 contraction                             0.000000           3
 set_dd_magatom                          0.000000           2
 ---------------------------------------------------------------
 
Profiling took   0.003999  0.003182  0.002703  0.002669 seconds
Profiling took   0.001340 seconds
