       N       E                     dE             d eps       ncg     rms          rms(c)
DIA:   1    -0.100029911365E+02   -0.10003E+02    0.00000E+00     0   0.000E+00
   1 F= -.10002991E+02 E0= -.10002991E+02  d E =0.000000E+00
