 vasp.6.3.0 20Jan22 (build Dec  8 2022 17:40:58) gamma-only                      
 executed on             LinuxGNU date 2024.05.24  14:02:09
 running on    4 total cores
 distrk:  each k-point on    4 cores,    1 groups
 distr:  one band on NCORE=   1 cores,    4 groups


--------------------------------------------------------------------------------------------------------


 INCAR:
   ENCUT = 500
   SIGMA = 0.001
   EDIFF = 1E-6
   ISYM = -1
   ALGO = sub
   NELM = 1
   NBANDS = 6619
   ISYM = -1
   PREC = Accurate
   LREAL = .TRUE.

 POTCAR:    PAW_PBE Li_AE_GW 25Mar2010            
 POTCAR:    PAW_PBE H_GW 21Apr2008                
 POTCAR:    PAW_PBE Li_AE_GW 25Mar2010            
   SHA256 =  ae13e6342699fe0ac99e545771c218bb29ee312c520ed4d7aae94e33ddcb6cd4 Li_AE_GW/POTCAR       
   COPYR  = (c) Copyright 25Mar2010 Georg Kresse                                                    
   COPYR  = This file is part of the software VASP. Any use, copying, and all other rights are regul
   COPYR  = If you do not have a valid VASP license, you may not use, copy or distribute this file. 
   VRHFIN =Li: 1s2s                                                                                 
   LEXCH  = PE                                                                                      
   EATOM  =   200.9989 eV,   14.7730 Ry                                                             
                                                                                                    
   TITEL  = PAW_PBE Li_AE_GW 25Mar2010                                                              
   LULTRA =        F    use ultrasoft PP ?                                                          
   IUNSCR =        0    unscreen: 0-lin 1-nonlin 2-no                                               
   RPACOR =    0.000    partial core radius                                                         
   POMASS =    7.010; ZVAL   =    3.000    mass and valenz                                          
   RCORE  =    1.500    outmost cutoff radius                                                       
   RWIGS  =    1.600; RWIGS  =    0.847    wigner-seitz radius (au A)                               
   ENMAX  =  433.699; ENMIN  =  325.274 eV                                                          
   RCLOC  =    1.003    cutoff for local pot                                                        
   LCOR   =        T    correct aug charges                                                         
   LPAW   =        T    paw PP                                                                      
   EAUG   = 1534.740                                                                                
   RMAX   =    1.536    core radius for proj-oper                                                   
   RAUG   =    1.300    factor for augmentation sphere                                              
   RDEP   =    1.520    radius for radial grids                                                     
   RDEPT  =    1.300    core radius for aug-charge                                                  
                                                                                                    
   Atomic configuration                                                                             
    5 entries                                                                                       
     n  l   j            E        occ.                                                              
     1  0  0.50       -53.3604   2.0000                                                             
     1  0  0.50       -52.0001   0.0000                                                             
     2  1  0.50        -1.5636   1.0000                                                             
     3  2  1.50        -1.3606   0.0000                                                             
     4  3  2.50        -1.3606   0.0000                                                             
   Description                                                                                      
     l       E           TYP  RCUT    TYP  RCUT                                                     
     0    -53.3603633     23  1.200                                                                 
     0    -52.0001064     23  1.200                                                                 
     0    176.8757380     23  1.300                                                                 
     1     -1.5635925     23  1.500                                                                 
     1    122.4524340     23  1.500                                                                 
     1    299.3281720     23  1.500                                                                 
     2     54.4233040     23  1.500                                                                 
     2    204.0873900     23  1.500                                                                 
     3    122.4524340     23  1.500                                                                 
  local pseudopotential read in
  kinetic energy density of atom read in
  atomic valenz-charges read in
  non local Contribution for L=           0  read in
    real space projection operators read in
  non local Contribution for L=           0  read in
    real space projection operators read in
  non local Contribution for L=           0  read in
    real space projection operators read in
  non local Contribution for L=           1  read in
    real space projection operators read in
  non local Contribution for L=           1  read in
    real space projection operators read in
  non local Contribution for L=           1  read in
    real space projection operators read in
  non local Contribution for L=           2  read in
    real space projection operators read in
  non local Contribution for L=           2  read in
    real space projection operators read in
  non local Contribution for L=           3  read in
    real space projection operators read in
    PAW grid and wavefunctions read in

   number of l-projection  operators is LMAX  =           9
   number of lm-projection operators is LMMAX =          29

 POTCAR:    PAW_PBE H_GW 21Apr2008                
   SHA256 =  cecc88617a3d1ece9865646f5d462fc0f44fd1f68d6f2eb08f18a2e421902afb H_GW/POTCAR           
   COPYR  = (c) Copyright 21Apr2008 Georg Kresse                                                    
   COPYR  = This file is part of the software VASP. Any use, copying, and all other rights are regul
   COPYR  = If you do not have a valid VASP license, you may not use, copy or distribute this file. 
   VRHFIN =H: ultrasoft test                                                                        
   LEXCH  = PE                                                                                      
   EATOM  =    12.4884 eV,    0.9179 Ry                                                             
                                                                                                    
   TITEL  = PAW_PBE H_GW 21Apr2008                                                                  
   LULTRA =        F    use ultrasoft PP ?                                                          
   IUNSCR =        0    unscreen: 0-lin 1-nonlin 2-no                                               
   RPACOR =    0.000    partial core radius                                                         
   POMASS =    1.000; ZVAL   =    1.000    mass and valenz                                          
   RCORE  =    1.100    outmost cutoff radius                                                       
   RWIGS  =    1.100; RWIGS  =    0.582    wigner-seitz radius (au A)                               
   ENMAX  =  300.000; ENMIN  =  250.000 eV                                                          
   RCLOC  =    0.701    cutoff for local pot                                                        
   LCOR   =        T    correct aug charges                                                         
   LPAW   =        T    paw PP                                                                      
   EAUG   =  500.000                                                                                
   RMAX   =    1.123    core radius for proj-oper                                                   
   RAUG   =    1.200    factor for augmentation sphere                                              
   RDEP   =    1.112    radius for radial grids                                                     
   RDEPT  =    1.100    core radius for aug-charge                                                  
                                                                                                    
   Atomic configuration                                                                             
    3 entries                                                                                       
     n  l   j            E        occ.                                                              
     1  0  0.50        -6.4927   1.0000                                                             
     2  1  0.50        -3.4015   0.0000                                                             
     3  2  1.50        13.6058   0.0000                                                             
   Description                                                                                      
     l       E           TYP  RCUT    TYP  RCUT                                                     
     0     -6.4927495     23  0.950                                                                 
     0      6.8029130     23  0.950                                                                 
     1     -4.0817478     23  1.100                                                                 
     1    108.8466080     23  1.100                                                                 
     2     81.6349560     23  1.100                                                                 
  local pseudopotential read in
  kinetic energy density of atom read in
  atomic valenz-charges read in
  non local Contribution for L=           0  read in
    real space projection operators read in
  non local Contribution for L=           0  read in
    real space projection operators read in
  non local Contribution for L=           1  read in
    real space projection operators read in
  non local Contribution for L=           1  read in
    real space projection operators read in
  non local Contribution for L=           2  read in
    real space projection operators read in
    PAW grid and wavefunctions read in

   number of l-projection  operators is LMAX  =           5
   number of lm-projection operators is LMMAX =          13

 -----------------------------------------------------------------------------
|                                                                             |
|               ----> ADVICE to this user running VASP <----                  |
|                                                                             |
|     You have a (more or less) 'small supercell' and for smaller cells       |
|     it is recommended to use the reciprocal-space projection scheme!        |
|     The real-space optimization is not efficient for small cells and it     |
|     is also less accurate ...                                               |
|     Therefore, set LREAL=.FALSE. in the INCAR file.                         |
|                                                                             |
 -----------------------------------------------------------------------------

 -----------------------------------------------------------------------------
|                                                                             |
|           W    W    AA    RRRRR   N    N  II  N    N   GGGG   !!!           |
|           W    W   A  A   R    R  NN   N  II  NN   N  G    G  !!!           |
|           W    W  A    A  R    R  N N  N  II  N N  N  G       !!!           |
|           W WW W  AAAAAA  RRRRR   N  N N  II  N  N N  G  GGG   !            |
|           WW  WW  A    A  R   R   N   NN  II  N   NN  G    G                |
|           W    W  A    A  R    R  N    N  II  N    N   GGGG   !!!           |
|                                                                             |
|     The real-space projection scheme for the treatment of the non-local     |
|     pseudopotentials has been switched on but on file POTCAR I have not     |
|     found any entries, signalling me that you have never performed a        |
|     real-space optimization of all non-local projectors! BE WARNED that     |
|     a calculation using the real-space projection scheme together with      |
|     non-local projectors which were not real-space optimized (according     |
|     to the plane-wave cutoff used in this calculation) might give more      |
|     or less inaccurate results. I hope you know what you are doing.         |
|                                                                             |
 -----------------------------------------------------------------------------

  PAW_PBE Li_AE_GW 25Mar2010            :
 energy of atom  1       EATOM= -200.9989
 kinetic energy error for atom=    0.0174 (will be added to EATOM!!)
  PAW_PBE H_GW 21Apr2008                :
 energy of atom  2       EATOM=  -12.4884
 kinetic energy error for atom=    0.0109 (will be added to EATOM!!)


 POSCAR: LiH
  positions in cartesian coordinates
  No initial velocities read in
 exchange correlation table for  LEXCH =        8
   RHO(1)=    0.500       N(1)  =     2000
   RHO(2)=  100.500       N(2)  =     4000



--------------------------------------------------------------------------------------------------------


 ion  position               nearest neighbor table
   1  0.000  0.000  0.000-   2 1.62
   2  0.000  0.000  0.255-   1 1.62


IMPORTANT INFORMATION: All symmetrisations will be switched off!
NOSYMM: (Re-)initialisation of all symmetry stuff for point group C_1.


----------------------------------------------------------------------------------------

                                     Primitive cell                                     

  volume of cell :     256.0479

  direct lattice vectors                    reciprocal lattice vectors
     6.350000000  0.000000000  0.000000000     0.157480315  0.000000000  0.000000000
     0.000000000  6.350000000  0.000000000     0.000000000  0.157480315  0.000000000
     0.000000000  0.000000000  6.350000000     0.000000000  0.000000000  0.157480315

  length of vectors
     6.350000000  6.350000000  6.350000000     0.157480315  0.157480315  0.157480315

  position of ions in fractional coordinates (direct lattice)
     0.000000000  0.000000000  0.000000000
     0.000000000  0.000000000  0.255285402

  ion indices of the primitive-cell ions
   primitive index   ion index
                 1           1
                 2           2

----------------------------------------------------------------------------------------



 KPOINTS: Automatically generated mesh            

Automatic generation of k-mesh.
 Grid dimensions read from file:
 generate k-points for:    1    1    1

 Generating k-lattice:

  Cartesian coordinates                     Fractional coordinates (reciprocal lattice)
     0.157480315  0.000000000  0.000000000     1.000000000  0.000000000  0.000000000
     0.000000000  0.157480315  0.000000000     0.000000000  1.000000000  0.000000000
     0.000000000  0.000000000  0.157480315     0.000000000  0.000000000  1.000000000

  Length of vectors
     0.157480315  0.157480315  0.157480315

  Shift w.r.t. Gamma in fractional coordinates (k-lattice)
     0.000000000  0.000000000  0.000000000

 
 Subroutine IBZKPT returns following result:
 ===========================================
 
 Found      1 irreducible k-points:
 
 Following reciprocal coordinates:
            Coordinates               Weight
  0.000000  0.000000  0.000000      1.000000
 
 Following cartesian coordinates:
            Coordinates               Weight
  0.000000  0.000000  0.000000      1.000000
 
 -----------------------------------------------------------------------------
|                                                                             |
|           W    W    AA    RRRRR   N    N  II  N    N   GGGG   !!!           |
|           W    W   A  A   R    R  NN   N  II  NN   N  G    G  !!!           |
|           W    W  A    A  R    R  N N  N  II  N N  N  G       !!!           |
|           W WW W  AAAAAA  RRRRR   N  N N  II  N  N N  G  GGG   !            |
|           WW  WW  A    A  R   R   N   NN  II  N   NN  G    G                |
|           W    W  A    A  R    R  N    N  II  N    N   GGGG   !!!           |
|                                                                             |
|     The number of bands has been changed from the values supplied in        |
|     the INCAR file. This is a result of running the parallel version.       |
|     The orbitals not found in the WAVECAR file will be initialized with     |
|     random numbers, which is usually adequate. For correlated               |
|     calculations, however, you should redo the groundstate calculation.     |
|     I found NBANDS = 6619. Now, NBANDS = 6620.                              |
|                                                                             |
 -----------------------------------------------------------------------------



--------------------------------------------------------------------------------------------------------




 Dimension of arrays:
   k-points           NKPTS =      1   k-points in BZ     NKDIM =      1   number of bands    NBANDS=   6620
   number of dos      NEDOS =    301   number of ions     NIONS =      2
   non local maximal  LDIM  =      9   non local SUM 2l+1 LMDIM =     29
   total plane-waves  NPLWV = 110592
   max r-space proj   IRMAX =   1021   max aug-charges    IRDMAX=   5491
   dimension x,y,z NGX =    48 NGY =   48 NGZ =   48
   dimension x,y,z NGXF=    96 NGYF=   96 NGZF=   96
   support grid    NGXF=    96 NGYF=   96 NGZF=   96
   ions per type =               1   1
   NGX,Y,Z   is equivalent  to a cutoff of  12.57, 12.57, 12.57 a.u.
   NGXF,Y,Z  is equivalent  to a cutoff of  25.13, 25.13, 25.13 a.u.

 SYSTEM =  unknown system                          
 POSCAR =  LiH                                     

 Startparameter for this run:
   NWRITE =      2    write-flag & timer
   PREC   = accura    normal or accurate (medium, high low for compatibility)
   ISTART =      1    job   : 0-new  1-cont  2-samecut
   ICHARG =      0    charge: 1-file 2-atom 10-const
   ISPIN  =      1    spin polarized calculation?
   LNONCOLLINEAR =      F non collinear calculations
   LSORBIT =      F    spin-orbit coupling
   INIWAV =      1    electr: 0-lowe 1-rand  2-diag
   LASPH  =      F    aspherical Exc in radial PAW
 Electronic Relaxation 1
   ENCUT  =  500.0 eV  36.75 Ry    6.06 a.u.  11.58 11.58 11.58*2*pi/ulx,y,z
   ENINI  =  500.0     initial cutoff
   ENAUG  = 1534.7 eV  augmentation charge cutoff
   NELM   =      1;   NELMIN=  2; NELMDL=  0     # of ELM steps 
   EDIFF  = 0.1E-05   stopping-criterion for ELM
   LREAL  =      T    real-space projection
   NLSPLINE    = F    spline interpolate recip. space projectors
   LCOMPAT=      F    compatible to vasp.4.4
   GGA_COMPAT  = T    GGA compatible to vasp.4.4-vasp.4.6
   LMAXPAW     = -100 max onsite density
   LMAXMIX     =    2 max onsite mixed and CHGCAR
   VOSKOWN=      0    Vosko Wilk Nusair interpolation
   ROPT   =    0.00000   0.00000
 Ionic relaxation
   EDIFFG = 0.1E-04   stopping-criterion for IOM
   NSW    =      0    number of steps for IOM
   NBLOCK =      1;   KBLOCK =      1    inner block; outer block 
   IBRION =     -1    ionic relax: 0-MD 1-quasi-New 2-CG
   NFREE  =      0    steps in history (QN), initial steepest desc. (CG)
   ISIF   =      2    stress and relaxation
   IWAVPR =     10    prediction:  0-non 1-charg 2-wave 3-comb
   ISYM   =     -1    0-nonsym 1-usesym 2-fastsym
   LCORR  =      T    Harris-Foulkes like correction to forces

   POTIM  = 0.5000    time-step for ionic-motion
   TEIN   =    0.0    initial temperature
   TEBEG  =    0.0;   TEEND  =   0.0 temperature during run
   SMASS  =  -3.00    Nose mass-parameter (am)
   estimated Nose-frequenzy (Omega)   =  0.10E-29 period in steps = 0.13E+47 mass=  -0.921E-27a.u.
   SCALEE = 1.0000    scale energy and forces
   NPACO  =    256;   APACO  = 10.0  distance and # of slots for P.C.
   PSTRESS=    0.0 pullay stress

  Mass of Ions in am
   POMASS =   7.01  1.00
  Ionic Valenz
   ZVAL   =   3.00  1.00
  Atomic Wigner-Seitz radii
   RWIGS  =  -1.00 -1.00
  virtual crystal weights 
   VCA    =   1.00  1.00
   NELECT =       4.0000    total number of electrons
   NUPDOWN=      -1.0000    fix difference up-down

 DOS related values:
   EMIN   =  10.00;   EMAX   =-10.00  energy-range for DOS
   EFERMI =   0.00
   ISMEAR =     1;   SIGMA  =   0.00  broadening in eV -4-tet -1-fermi 0-gaus

 Electronic relaxation 2 (details)
   IALGO  =      4    algorithm
   LDIAG  =      T    sub-space diagonalisation (order eigenvalues)
   LSUBROT=      F    optimize rotation matrix (better conditioning)
   TURBO    =      0    0=normal 1=particle mesh
   IRESTART =      0    0=no restart 2=restart with 2 vectors
   NREBOOT  =      0    no. of reboots
   NMIN     =      0    reboot dimension
   EREF     =   0.00    reference energy to select bands
   IMIX   =      4    mixing-type and parameters
     AMIX     =   0.40;   BMIX     =  1.00
     AMIX_MAG =   1.60;   BMIX_MAG =  1.00
     AMIN     =   0.10
     WC   =   100.;   INIMIX=   1;  MIXPRE=   1;  MAXMIX= -45

 Intra band minimization:
   WEIMIN = 0.0000     energy-eigenvalue tresh-hold
   EBREAK =  0.38E-10  absolut break condition
   DEPER  =   0.30     relativ break condition  

   TIME   =   0.40     timestep for ELM

  volume/ion in A,a.u.               =     128.02       863.95
  Fermi-wavevector in a.u.,A,eV,Ry     =   0.409249  0.773369  2.278770  0.167485
  Thomas-Fermi vector in A             =   1.364105

 Write flags
   LWAVE        =      T    write WAVECAR
   LDOWNSAMPLE  =      F    k-point downsampling of WAVECAR
   LCHARG       =      T    write CHGCAR
   LVTOT        =      F    write LOCPOT, total local potential
   LVHAR        =      F    write LOCPOT, Hartree potential only
   LELF         =      F    write electronic localiz. function (ELF)
   LORBIT       =      0    0 simple, 1 ext, 2 COOP (PROOUT), +10 PAW based schemes


 Dipole corrections
   LMONO  =      F    monopole corrections only (constant potential shift)
   LDIPOL =      F    correct potential (dipole corrections)
   IDIPOL =      0    1-x, 2-y, 3-z, 4-all directions 
   EPSILON=  1.0000000 bulk dielectric constant

 Exchange correlation treatment:
   GGA     =    --    GGA type
   LEXCH   =     8    internal setting for exchange type
   LIBXC   =     F    Libxc                    
   VOSKOWN =     0    Vosko Wilk Nusair interpolation
   LHFCALC =     F    Hartree Fock is set to
   LHFONE  =     F    Hartree Fock one center treatment
   AEXX    =    0.0000 exact exchange contribution

 Linear response parameters
   LEPSILON=     F    determine dielectric tensor
   LRPA    =     F    only Hartree local field effects (RPA)
   LNABLA  =     F    use nabla operator in PAW spheres
   LVEL    =     F    velocity operator in full k-point grid
   CSHIFT  =0.1000    complex shift for real part using Kramers Kronig
   OMEGAMAX=  -1.0    maximum frequency
   DEG_THRESHOLD= 0.2000000E-02 threshold for treating states as degnerate
   RTIME   =   -0.100 relaxation time in fs
  (WPLASMAI=    0.000 imaginary part of plasma frequency in eV, 0.658/RTIME)
   DFIELD  = 0.0000000 0.0000000 0.0000000 field for delta impulse in time

  Optional k-point grid parameters
   LKPOINTS_OPT  =     F    use optional k-point grid
   KPOINTS_OPT_MODE=     1    mode for optional k-point grid

 Orbital magnetization related:
   ORBITALMAG=     F  switch on orbital magnetization
   LCHIMAG   =     F  perturbation theory with respect to B field
   DQ        =  0.001000  dq finite difference perturbation B field
   LLRAUG    =     F  two centre corrections for induced B field



--------------------------------------------------------------------------------------------------------


 Static calculation
 charge density and potential will be updated during run
 non-spin polarized calculation
 Subrot: only subspace diagonalization (rotation)
    band-by band algorithm
 perform sub-space diagonalisation
    before iterative eigenvector-optimisation
 modified Broyden-mixing scheme, WC =      100.0
 initial mixing is a Kerker type mixing with AMIX =  0.4000 and BMIX =      1.0000
 Hartree-type preconditioning will be used
 using additional bands         6618
 real space projection scheme for non local part
 calculate Harris-corrections to forces   (improved forces if not selfconsistent)
 use gradient corrections 
 use of overlap-Matrix (Vanderbilt PP)
 Methfessel and Paxton  Order N= 1 SIGMA  =   0.00


--------------------------------------------------------------------------------------------------------


  energy-cutoff  :      500.00
  volume of cell :      256.05
      direct lattice vectors                 reciprocal lattice vectors
     6.350000000  0.000000000  0.000000000     0.157480315  0.000000000  0.000000000
     0.000000000  6.350000000  0.000000000     0.000000000  0.157480315  0.000000000
     0.000000000  0.000000000  6.350000000     0.000000000  0.000000000  0.157480315

  length of vectors
     6.350000000  6.350000000  6.350000000     0.157480315  0.157480315  0.157480315



 old parameters found on file WAVECAR:
  energy-cutoff  :      500.00
  volume of cell :      256.05
      direct lattice vectors                 reciprocal lattice vectors
     6.350000000  0.000000000  0.000000000     0.157480315  0.000000000  0.000000000
     0.000000000  6.350000000  0.000000000     0.000000000  0.157480315  0.000000000
     0.000000000  0.000000000  6.350000000     0.000000000  0.000000000  0.157480315

  length of vectors


 k-points in units of 2pi/SCALE and weight: Automatically generated mesh            
   0.00000000  0.00000000  0.00000000       1.000

 k-points in reciprocal lattice and weights: Automatically generated mesh            
   0.00000000  0.00000000  0.00000000       1.000

 position of ions in fractional coordinates (direct lattice) 
   0.00000000  0.00000000  0.00000000
   0.00000000  0.00000000  0.25528540

 position of ions in cartesian coordinates  (Angst):
   0.00000000  0.00000000  0.00000000
   0.00000000  0.00000000  1.62106230



--------------------------------------------------------------------------------------------------------


 use serial FFT for orbitals x direction half grid
 k-point   1 :   0.0000 0.0000 0.0000  plane waves:    3310

 maximum and minimum number of plane-waves per node :      3310     3310

 maximum number of plane-waves:      3310
 maximum index in each direction: 
   IXMAX=   11   IYMAX=   11   IZMAX=   11
   IXMIN=    0   IYMIN=  -11   IZMIN=  -11


 serial   3D FFT for wavefunctions
 parallel 3D FFT for charge:
    minimum data exchange during FFTs selected (reduces bandwidth)


 total amount of memory used by VASP MPI-rank0   143662. kBytes
=======================================================================

   base      :      30000. kBytes
   nonlr-proj:        278. kBytes
   fftplans  :       8029. kBytes
   grid      :      17031. kBytes
   one-center:         40. kBytes
   wavefun   :      88284. kBytes

     INWAV:  cpu time      0.9574: real time      0.9579
 Broyden mixing: mesh for mixing (old mesh)
   NGX = 23   NGY = 23   NGZ = 23
  (NGX  = 96   NGY  = 96   NGZ  = 96)
  gives a total of  12167 points

 charge density for first step will be calculated from the start-wavefunctions


--------------------------------------------------------------------------------------------------------


 Maximum index for non-local projection operator          925
 Maximum index for augmentation-charges         1289 (set IRDMAX)


--------------------------------------------------------------------------------------------------------


 initial charge from wavefunction
 First call to EWALD:  gamma=   0.279
 Maximum number of real-space cells 3x 3x 3
 Maximum number of reciprocal cells 3x 3x 3

    FEWALD:  cpu time      0.0005: real time      0.0005


--------------------------------------- Iteration      1(   1)  ---------------------------------------


    POTLOK:  cpu time      0.1067: real time      0.1084
    SETDIJ:  cpu time      0.0021: real time      0.0021
    EDDIAG:  cpu time     46.3195: real time     46.3351
       DOS:  cpu time      0.0004: real time      0.0005
    --------------------------------------------
      LOOP:  cpu time     46.4287: real time     46.4461

 eigenvalue-minimisations  :     0
 total energy-change (2. order) :-0.5838796E+01  ( 0.0000000E+00)
 number of electron       3.9999990 magnetization 
 augmentation part        0.8601212 magnetization 

 Free energy of the ion-electron system (eV)
  ---------------------------------------------------
  alpha Z        PSCENC =         0.29779674
  Ewald energy   TEWEN  =       -23.80406567
  -Hartree energ DENC   =       -83.76797034
  -exchange      EXHF   =         0.00000000
  -V(xc)+E(xc)   XCENC  =        14.39354980
  PAW double counting   =        89.62240629     -105.44597847
  entropy T*S    EENTRO =         0.00000000
  eigenvalues    EBANDS =      -110.59357439
  atomic energy  EATOM  =       213.45904010
  Solvation  Ediel_sol  =         0.00000000
  ---------------------------------------------------
  free energy    TOTEN  =        -5.83879594 eV

  energy without entropy =       -5.83879594  energy(sigma->0) =       -5.83879594


--------------------------------------------------------------------------------------------------------




 average (electrostatic) potential at core
  the test charge radii are     0.7079  0.5883
  (the norm of the test charge is              1.0000)
       1 -46.6394       2 -34.9683



 E-fermi :  -4.0350     XC(G=0):  -2.2008     alpha+bet : -0.9633

 Fermi energy:        -4.0350440761

 k-point     1 :       0.0000    0.0000    0.0000
  band No.  band energies     occupation 
      1     -50.5942      2.00000
      2      -4.7026      2.00000
      3      -1.3602      0.00000
      4       0.6488      0.00000
      5       0.6488      0.00000
      6       1.3775      0.00000
      7       1.7345      0.00000
      8       2.1621      0.00000
      9       3.7366      0.00000
     10       4.4443      0.00000
     11       4.4443      0.00000
     12       5.2027      0.00000
     13       5.2027      0.00000
     14       5.3580      0.00000
     15       5.5586      0.00000
     16       5.6753      0.00000
     17       5.8626      0.00000
     18       5.8626      0.00000
     19       5.9838      0.00000
     20       6.0477      0.00000
     21       8.6376      0.00000
     22       8.9508      0.00000
     23       8.9508      0.00000
     24       9.2704      0.00000
     25       9.2821      0.00000
     26       9.2821      0.00000
     27       9.3590      0.00000
     28       9.6402      0.00000
     29      10.0772      0.00000
     30      11.5579      0.00000
     31      11.5998      0.00000
     32      11.5998      0.00000
     33      12.4112      0.00000
     34      13.3579      0.00000
     35      14.6762      0.00000
     36      14.8895      0.00000
     37      14.8895      0.00000
     38      15.0343      0.00000
     39      15.7970      0.00000
     40      15.7970      0.00000
     41      15.9750      0.00000
     42      16.2579      0.00000
     43      16.2704      0.00000
     44      16.2704      0.00000
     45      16.3862      0.00000
     46      16.4968      0.00000
     47      16.7688      0.00000
     48      16.7688      0.00000
     49      16.7876      0.00000
     50      16.7876      0.00000
     51      16.9253      0.00000
     52      17.0318      0.00000
     53      17.1571      0.00000
     54      17.1716      0.00000
     55      17.1716      0.00000
     56      17.2715      0.00000
     57      17.3307      0.00000
     58      17.7511      0.00000
     59      19.4848      0.00000
     60      19.4848      0.00000
     61      19.5241      0.00000
     62      19.8375      0.00000
     63      19.9234      0.00000
     64      19.9234      0.00000
     65      19.9911      0.00000
     66      20.1211      0.00000
     67      20.6233      0.00000
     68      20.6590      0.00000
     69      20.6590      0.00000
     70      20.6698      0.00000
     71      20.7011      0.00000
     72      20.7355      0.00000
     73      20.7355      0.00000
     74      20.7543      0.00000
     75      20.7819      0.00000
     76      20.7819      0.00000
     77      20.7975      0.00000
     78      20.8210      0.00000
     79      20.8391      0.00000
     80      20.8391      0.00000
     81      20.8747      0.00000
     82      21.4983      0.00000
     83      25.1929      0.00000
     84      26.2936      0.00000
     85      26.2936      0.00000
     86      26.8219      0.00000
     87      27.3100      0.00000
     88      27.3100      0.00000
     89      27.4357      0.00000
     90      27.4756      0.00000
     91      27.4756      0.00000
     92      27.6301      0.00000
     93      27.7067      0.00000
     94      28.4183      0.00000
     95      29.1761      0.00000
     96      29.8000      0.00000
     97      29.8000      0.00000
     98      29.9993      0.00000
     99      30.2299      0.00000
    100      30.6024      0.00000
    101      30.7444      0.00000
    102      30.7444      0.00000
    103      30.7844      0.00000
    104      30.9527      0.00000
    105      30.9527      0.00000
    106      31.0222      0.00000
    107      31.1026      0.00000
    108      31.8053      0.00000
    109      31.8053      0.00000
    110      31.8056      0.00000
    111      31.8264      0.00000
    112      31.8426      0.00000
    113      31.8426      0.00000
    114      31.8449      0.00000
    115      31.8842      0.00000
    116      31.9350      0.00000
    117      31.9642      0.00000
    118      31.9668      0.00000
    119      31.9668      0.00000
    120      31.9779      0.00000
    121      31.9779      0.00000
    122      31.9859      0.00000
    123      32.0012      0.00000
    124      32.9232      0.00000
    125      33.8579      0.00000
    126      34.1999      0.00000
    127      34.2158      0.00000
    128      34.2158      0.00000
    129      34.5634      0.00000
    130      34.5941      0.00000
    131      34.8372      0.00000
    132      34.8372      0.00000
    133      35.0036      0.00000
    134      35.0448      0.00000
    135      35.0448      0.00000
    136      35.0574      0.00000
    137      35.0873      0.00000
    138      35.0873      0.00000
    139      35.1897      0.00000
    140      35.1897      0.00000
    141      35.2416      0.00000
    142      35.6441      0.00000
    143      35.6932      0.00000
    144      35.6932      0.00000
    145      35.7324      0.00000
    146      35.8459      0.00000
    147      35.8549      0.00000
    148      36.7600      0.00000
    149      38.5126      0.00000
    150      38.5685      0.00000
    151      38.5685      0.00000
    152      38.6465      0.00000
    153      38.9259      0.00000
    154      38.9707      0.00000
    155      38.9707      0.00000
    156      39.0006      0.00000
    157      39.0674      0.00000
    158      39.0709      0.00000
    159      39.0709      0.00000
    160      39.1033      0.00000
    161      39.1325      0.00000
    162      39.1339      0.00000
    163      39.1339      0.00000
    164      39.1507      0.00000
    165      39.1518      0.00000
    166      39.1518      0.00000
    167      39.1620      0.00000
    168      39.2185      0.00000
    169      39.2197      0.00000
    170      39.2278      0.00000
    171      39.2278      0.00000
    172      40.4473      0.00000
    173      42.1186      0.00000
    174      42.2052      0.00000
    175      42.2052      0.00000
    176      42.5355      0.00000
    177      42.5355      0.00000
    178      42.5562      0.00000
    179      42.6545      0.00000
    180      42.9583      0.00000
    181      44.3244      0.00000
    182      44.6934      0.00000
    183      44.6934      0.00000
    184      45.3387      0.00000
    185      45.3387      0.00000
    186      45.4292      0.00000
    187      45.4632      0.00000
    188      45.6951      0.00000
    189      45.6994      0.00000
    190      45.6994      0.00000
    191      45.8035      0.00000
    192      45.9698      0.00000
    193      46.3358      0.00000
    194      46.4723      0.00000
    195      46.4723      0.00000
    196      46.5468      0.00000
    197      46.5468      0.00000
    198      46.6330      0.00000
    199      46.6691      0.00000
    200      46.7162      0.00000
    201      46.7186      0.00000
    202      46.7186      0.00000
    203      46.7262      0.00000
    204      47.7964      0.00000
    205      48.9130      0.00000
    206      48.9340      0.00000
    207      48.9340      0.00000
    208      49.0957      0.00000
    209      49.2765      0.00000
    210      49.4427      0.00000
    211      49.4427      0.00000
    212      49.5819      0.00000
    213      49.7097      0.00000
    214      49.7190      0.00000
    215      49.7190      0.00000
    216      49.8857      0.00000
    217      49.8979      0.00000
    218      49.8979      0.00000
    219      49.9626      0.00000
    220      50.0207      0.00000
    221      50.1044      0.00000
    222      50.1044      0.00000
    223      50.1479      0.00000
    224      50.1522      0.00000
    225      50.1684      0.00000
    226      50.1684      0.00000
    227      50.1725      0.00000
    228      50.4720      0.00000
    229      50.5149      0.00000
    230      50.5208      0.00000
    231      50.5249      0.00000
    232      50.5249      0.00000
    233      50.5535      0.00000
    234      50.5612      0.00000
    235      50.5612      0.00000
    236      50.5971      0.00000
    237      50.6248      0.00000
    238      50.6249      0.00000
    239      50.6249      0.00000
    240      50.6481      0.00000
    241      50.6515      0.00000
    242      50.6515      0.00000
    243      50.6633      0.00000
    244      50.7565      0.00000
    245      50.7677      0.00000
    246      50.7829      0.00000
    247      50.7829      0.00000
    248      50.8029      0.00000
    249      50.8029      0.00000
    250      50.8149      0.00000
    251      50.8427      0.00000
    252      52.1539      0.00000
    253      54.9761      0.00000
    254      55.9253      0.00000
    255      55.9253      0.00000
    256      56.0151      0.00000
    257      56.4193      0.00000
    258      57.5024      0.00000
    259      59.2114      0.00000
    260      59.2114      0.00000
    261      59.2121      0.00000
    262      59.3632      0.00000
    263      60.2299      0.00000
    264      60.2299      0.00000
    265      60.2313      0.00000
    266      60.3081      0.00000
    267      60.3812      0.00000
    268      60.4409      0.00000
    269      60.5489      0.00000
    270      60.5786      0.00000
    271      60.5786      0.00000
    272      60.7745      0.00000
    273      60.7745      0.00000
    274      60.9383      0.00000
    275      60.9629      0.00000
    276      61.1109      0.00000
    277      61.1109      0.00000
    278      61.1532      0.00000
    279      61.1532      0.00000
    280      61.1917      0.00000
    281      61.2544      0.00000
    282      61.2544      0.00000
    283      61.2833      0.00000
    284      61.5736      0.00000
    285      61.6074      0.00000
    286      61.6137      0.00000
    287      61.6253      0.00000
    288      61.6274      0.00000
    289      61.6274      0.00000
    290      61.6440      0.00000
    291      61.6440      0.00000
    292      61.7013      0.00000
    293      61.7192      0.00000
    294      61.7192      0.00000
    295      61.7332      0.00000
    296      61.7574      0.00000
    297      61.7728      0.00000
    298      61.7728      0.00000
    299      61.7750      0.00000
    300      61.7849      0.00000
    301      61.8285      0.00000
    302      61.8285      0.00000
    303      61.8521      0.00000
    304      61.9534      0.00000
    305      61.9557      0.00000
    306      63.0738      0.00000
    307      64.0296      0.00000
    308      64.1241      0.00000
    309      64.1241      0.00000
    310      64.4603      0.00000
    311      64.4603      0.00000
    312      64.5217      0.00000
    313      64.5838      0.00000
    314      64.6424      0.00000
    315      64.6449      0.00000
    316      64.6940      0.00000
    317      64.6940      0.00000
    318      64.6998      0.00000
    319      64.9614      0.00000
    320      64.9614      0.00000
    321      65.0907      0.00000
    322      65.0930      0.00000
    323      65.1595      0.00000
    324      65.1754      0.00000
    325      65.2035      0.00000
    326      65.2035      0.00000
    327      65.2255      0.00000
    328      65.2430      0.00000
    329      65.2430      0.00000
    330      65.2463      0.00000
    331      65.2599      0.00000
    332      65.2688      0.00000
    333      65.2827      0.00000
    334      65.2827      0.00000
    335      65.2956      0.00000
    336      65.2956      0.00000
    337      65.2991      0.00000
    338      65.3045      0.00000
    339      65.3249      0.00000
    340      65.3249      0.00000
    341      65.3256      0.00000
    342      67.2132      0.00000
    343      68.2717      0.00000
    344      68.3835      0.00000
    345      68.3835      0.00000
    346      68.5579      0.00000
    347      68.6177      0.00000
    348      68.6250      0.00000
    349      68.6250      0.00000
    350      68.7133      0.00000
    351      68.7133      0.00000
    352      68.7952      0.00000
    353      68.8028      0.00000
    354      68.8357      0.00000
    355      68.8664      0.00000
    356      68.8664      0.00000
    357      68.8895      0.00000
    358      68.9052      0.00000
    359      68.9132      0.00000
    360      68.9681      0.00000
    361      68.9681      0.00000
    362      68.9763      0.00000
    363      68.9768      0.00000
    364      68.9768      0.00000
    365      68.9883      0.00000
    366      70.1441      0.00000
    367      71.0163      0.00000
    368      71.5886      0.00000
    369      71.5886      0.00000
    370      71.6182      0.00000
    371      71.9623      0.00000
    372      71.9724      0.00000
    373      72.0464      0.00000
    374      72.0464      0.00000
    375      72.1333      0.00000
    376      72.1333      0.00000
    377      72.1525      0.00000
    378      72.1840      0.00000
    379      72.1840      0.00000
    380      72.2126      0.00000
    381      72.2222      0.00000
    382      72.3031      0.00000
    383      72.3031      0.00000
    384      72.4220      0.00000
    385      72.4327      0.00000
    386      72.4327      0.00000
    387      72.4364      0.00000
    388      72.4959      0.00000
    389      72.5116      0.00000
    390      74.1340      0.00000
    391      75.1937      0.00000
    392      75.2798      0.00000
    393      75.2798      0.00000
    394      75.5056      0.00000
    395      75.6465      0.00000
    396      75.7388      0.00000
    397      75.7388      0.00000
    398      75.8909      0.00000
    399      75.9065      0.00000
    400      75.9065      0.00000
    401      75.9336      0.00000
    402      75.9603      0.00000
    403      76.0226      0.00000
    404      76.0347      0.00000
    405      76.0347      0.00000
    406      76.0650      0.00000
    407      76.0650      0.00000
    408      76.1052      0.00000
    409      76.1061      0.00000
    410      76.1360      0.00000
    411      76.1828      0.00000
    412      76.1828      0.00000
    413      76.2029      0.00000
    414      76.4163      0.00000
    415      76.5413      0.00000
    416      76.5413      0.00000
    417      76.5936      0.00000
    418      76.5998      0.00000
    419      76.6314      0.00000
    420      76.6314      0.00000
    421      76.6353      0.00000
    422      76.6512      0.00000
    423      76.6637      0.00000
    424      76.6637      0.00000
    425      76.6641      0.00000
    426      76.6795      0.00000
    427      76.6894      0.00000
    428      76.6894      0.00000
    429      76.6991      0.00000
    430      76.7153      0.00000
    431      76.7183      0.00000
    432      76.7449      0.00000
    433      76.7449      0.00000
    434      76.7477      0.00000
    435      76.7477      0.00000
    436      76.7798      0.00000
    437      76.7845      0.00000
    438      78.1283      0.00000
    439      78.7271      0.00000
    440      78.9329      0.00000
    441      78.9329      0.00000
    442      79.0381      0.00000
    443      79.0381      0.00000
    444      79.0985      0.00000
    445      79.1647      0.00000
    446      80.1484      0.00000
    447      80.2060      0.00000
    448      80.2164      0.00000
    449      80.2164      0.00000
    450      80.2338      0.00000
    451      80.2644      0.00000
    452      80.2644      0.00000
    453      80.2735      0.00000
    454      80.3933      0.00000
    455      80.4009      0.00000
    456      80.4009      0.00000
    457      80.4037      0.00000
    458      80.4043      0.00000
    459      80.4060      0.00000
    460      80.4060      0.00000
    461      80.4128      0.00000
    462      81.9481      0.00000
    463      85.5549      0.00000
    464      86.2792      0.00000
    465      86.2792      0.00000
    466      86.6523      0.00000
    467      87.1012      0.00000
    468      87.1391      0.00000
    469      87.1391      0.00000
    470      87.1620      0.00000
    471      87.2617      0.00000
    472      87.2617      0.00000
    473      87.3119      0.00000
    474      87.3278      0.00000
    475      87.3765      0.00000
    476      87.3765      0.00000
    477      87.4349      0.00000
    478      87.4648      0.00000
    479      87.4747      0.00000
    480      87.4747      0.00000
    481      87.5049      0.00000
    482      87.5246      0.00000
    483      87.5331      0.00000
    484      87.5331      0.00000
    485      87.5559      0.00000
    486      87.9885      0.00000
    487      88.5800      0.00000
    488      88.6700      0.00000
    489      88.6700      0.00000
    490      88.8715      0.00000
    491      89.4412      0.00000
    492      89.8181      0.00000
    493      89.9721      0.00000
    494      90.0037      0.00000
    495      90.0037      0.00000
    496      90.2306      0.00000
    497      90.2336      0.00000
    498      90.2583      0.00000
    499      90.2583      0.00000
    500      90.4561      0.00000
    501      90.4561      0.00000
    502      90.4749      0.00000
    503      90.5747      0.00000
    504      91.1223      0.00000
    505      91.2283      0.00000
    506      91.2283      0.00000
    507      91.2475      0.00000
    508      91.2658      0.00000
    509      91.2658      0.00000
    510      91.3011      0.00000
    511      91.3199      0.00000
    512      91.4669      0.00000
    513      91.4741      0.00000
    514      91.4741      0.00000
    515      91.4770      0.00000
    516      92.4215      0.00000
    517      93.1990      0.00000
    518      93.5009      0.00000
    519      93.5009      0.00000
    520      93.6736      0.00000
    521      93.7875      0.00000
    522      93.8880      0.00000
    523      94.0102      0.00000
    524      94.0102      0.00000
    525      94.2036      0.00000
    526      94.2940      0.00000
    527      94.4036      0.00000
    528      94.4036      0.00000
    529      94.4192      0.00000
    530      94.4232      0.00000
    531      94.4232      0.00000
    532      94.4285      0.00000
    533      94.4775      0.00000
    534      94.5871      0.00000
    535      94.5871      0.00000
    536      94.6644      0.00000
    537      94.6699      0.00000
    538      94.6834      0.00000
    539      94.6834      0.00000
    540      94.7387      0.00000
    541      94.7387      0.00000
    542      94.7420      0.00000
    543      94.7470      0.00000
    544      94.7671      0.00000
    545      94.7671      0.00000
    546      94.7730      0.00000
    547      94.7768      0.00000
    548      94.7893      0.00000
    549      94.8278      0.00000
    550      94.8278      0.00000
    551      94.8397      0.00000
    552      94.8397      0.00000
    553      94.8498      0.00000
    554      94.8881      0.00000
    555      94.9034      0.00000
    556      94.9034      0.00000
    557      94.9286      0.00000
    558      95.1631      0.00000
    559      95.2147      0.00000
    560      95.2300      0.00000
    561      95.2300      0.00000
    562      95.2550      0.00000
    563      95.2624      0.00000
    564      95.2657      0.00000
    565      95.2657      0.00000
    566      95.2712      0.00000
    567      95.3008      0.00000
    568      95.3024      0.00000
    569      95.3024      0.00000
    570      95.3146      0.00000
    571      95.3176      0.00000
    572      95.3227      0.00000
    573      95.3227      0.00000
    574      95.3322      0.00000
    575      95.3437      0.00000
    576      95.3437      0.00000
    577      95.3476      0.00000
    578      95.3784      0.00000
    579      95.3793      0.00000
    580      95.3846      0.00000
    581      95.3846      0.00000
    582      95.4187      0.00000
    583      95.4225      0.00000
    584      95.4249      0.00000
    585      95.4249      0.00000
    586      95.5380      0.00000
    587      95.5401      0.00000
    588      97.4572      0.00000
    589      98.2830      0.00000
    590      98.2838      0.00000
    591      98.2838      0.00000
    592      98.3747      0.00000
    593      98.4276      0.00000
    594      98.4276      0.00000
    595      98.4381      0.00000
    596      98.4695      0.00000
    597      98.5322      0.00000
    598      98.5635      0.00000
    599      98.5657      0.00000
    600      98.5657      0.00000
    601      98.5864      0.00000
    602      98.7372      0.00000
    603      98.7372      0.00000
    604      98.7529      0.00000
    605      98.7577      0.00000
    606      98.7608      0.00000
    607      98.7608      0.00000
    608      98.7713      0.00000
    609      98.7859      0.00000
    610      98.7948      0.00000
    611      98.7948      0.00000
    612      98.8148      0.00000
    613      98.8148      0.00000
    614      98.8182      0.00000
    615      98.8266      0.00000
    616      98.8476      0.00000
    617      98.8494      0.00000
    618      98.8494      0.00000
    619      98.8650      0.00000
    620     101.2067      0.00000
    621     103.6712      0.00000
    622     103.7921      0.00000
    623     103.7921      0.00000
    624     104.2329      0.00000
    625     104.6882      0.00000
    626     104.6902      0.00000
    627     104.6902      0.00000
    628     104.7678      0.00000
    629     105.0800      0.00000
    630     105.1253      0.00000
    631     105.1308      0.00000
    632     105.1308      0.00000
    633     105.3721      0.00000
    634     105.3721      0.00000
    635     105.5002      0.00000
    636     105.5489      0.00000
    637     105.5489      0.00000
    638     105.5597      0.00000
    639     105.5749      0.00000
    640     105.5904      0.00000
    641     105.6623      0.00000
    642     105.7065      0.00000
    643     105.7065      0.00000
    644     105.7530      0.00000
    645     105.7530      0.00000
    646     105.7789      0.00000
    647     105.8240      0.00000
    648     105.8472      0.00000
    649     105.8647      0.00000
    650     105.8647      0.00000
    651     105.8761      0.00000
    652     105.8916      0.00000
    653     105.9042      0.00000
    654     105.9042      0.00000
    655     105.9134      0.00000
    656     105.9460      0.00000
    657     105.9460      0.00000
    658     105.9835      0.00000
    659     106.0017      0.00000
    660     106.0201      0.00000
    661     106.0478      0.00000
    662     106.0478      0.00000
    663     106.0619      0.00000
    664     106.0866      0.00000
    665     106.0866      0.00000
    666     106.0982      0.00000
    667     106.1233      0.00000
    668     106.4280      0.00000
    669     106.4314      0.00000
    670     106.4316      0.00000
    671     106.4366      0.00000
    672     106.4366      0.00000
    673     106.4523      0.00000
    674     106.4523      0.00000
    675     106.4547      0.00000
    676     106.5253      0.00000
    677     106.5311      0.00000
    678     106.5311      0.00000
    679     106.5321      0.00000
    680     106.5357      0.00000
    681     106.5518      0.00000
    682     106.5518      0.00000
    683     106.5563      0.00000
    684     106.6972      0.00000
    685     106.7016      0.00000
    686     106.7054      0.00000
    687     106.7054      0.00000
    688     106.7152      0.00000
    689     106.7173      0.00000
    690     106.7173      0.00000
    691     106.7331      0.00000
    692     108.5645      0.00000
    693     109.0521      0.00000
    694     109.1845      0.00000
    695     109.1845      0.00000
    696     109.3593      0.00000
    697     109.3736      0.00000
    698     109.4582      0.00000
    699     109.4582      0.00000
    700     109.4809      0.00000
    701     109.5467      0.00000
    702     109.5467      0.00000
    703     109.5633      0.00000
    704     109.5633      0.00000
    705     109.5834      0.00000
    706     109.6038      0.00000
    707     109.6069      0.00000
    708     109.6351      0.00000
    709     109.6559      0.00000
    710     109.6559      0.00000
    711     109.6656      0.00000
    712     109.6992      0.00000
    713     109.7257      0.00000
    714     109.7257      0.00000
    715     109.7622      0.00000
    716     110.0295      0.00000
    717     110.1394      0.00000
    718     110.1394      0.00000
    719     110.1820      0.00000
    720     110.1871      0.00000
    721     110.2076      0.00000
    722     110.2076      0.00000
    723     110.2177      0.00000
    724     110.2221      0.00000
    725     110.2221      0.00000
    726     110.2254      0.00000
    727     110.2275      0.00000
    728     110.2373      0.00000
    729     110.2422      0.00000
    730     110.2422      0.00000
    731     110.2467      0.00000
    732     110.2889      0.00000
    733     110.2896      0.00000
    734     110.3161      0.00000
    735     110.3161      0.00000
    736     110.3181      0.00000
    737     110.3181      0.00000
    738     110.3500      0.00000
    739     110.3554      0.00000
    740     113.3779      0.00000
    741     116.1254      0.00000
    742     116.1254      0.00000
    743     116.1257      0.00000
    744     116.5756      0.00000
    745     116.5756      0.00000
    746     116.6782      0.00000
    747     116.7059      0.00000
    748     116.7566      0.00000
    749     116.7912      0.00000
    750     116.8139      0.00000
    751     116.8139      0.00000
    752     117.7476      0.00000
    753     119.5608      0.00000
    754     119.6540      0.00000
    755     119.6540      0.00000
    756     120.1550      0.00000
    757     120.2913      0.00000
    758     120.3436      0.00000
    759     120.3436      0.00000
    760     120.5421      0.00000
    761     120.6232      0.00000
    762     120.6232      0.00000
    763     120.6830      0.00000
    764     120.6883      0.00000
    765     120.8599      0.00000
    766     120.8599      0.00000
    767     120.8640      0.00000
    768     120.8693      0.00000
    769     120.8732      0.00000
    770     120.8875      0.00000
    771     120.8875      0.00000
    772     120.9404      0.00000
    773     120.9582      0.00000
    774     120.9582      0.00000
    775     120.9585      0.00000
    776     120.9907      0.00000
    777     121.0214      0.00000
    778     121.0214      0.00000
    779     121.0286      0.00000
    780     121.0445      0.00000
    781     121.0781      0.00000
    782     121.0917      0.00000
    783     121.0917      0.00000
    784     121.1058      0.00000
    785     121.1281      0.00000
    786     121.1281      0.00000
    787     121.1362      0.00000
    788     121.1502      0.00000
    789     121.1502      0.00000
    790     121.1536      0.00000
    791     121.1585      0.00000
    792     121.1743      0.00000
    793     121.1804      0.00000
    794     121.1948      0.00000
    795     121.1948      0.00000
    796     121.2071      0.00000
    797     121.2077      0.00000
    798     121.2077      0.00000
    799     121.2133      0.00000
    800     122.4724      0.00000
    801     123.0759      0.00000
    802     123.2435      0.00000
    803     123.2435      0.00000
    804     123.5865      0.00000
    805     123.5865      0.00000
    806     123.6018      0.00000
    807     123.7064      0.00000
    808     123.7649      0.00000
    809     123.9208      0.00000
    810     124.1383      0.00000
    811     124.2238      0.00000
    812     124.2238      0.00000
    813     124.2608      0.00000
    814     124.2608      0.00000
    815     124.2680      0.00000
    816     124.3302      0.00000
    817     124.3365      0.00000
    818     124.3365      0.00000
    819     124.4285      0.00000
    820     124.4285      0.00000
    821     124.4357      0.00000
    822     124.4644      0.00000
    823     124.4714      0.00000
    824     124.4714      0.00000
    825     124.4762      0.00000
    826     124.4796      0.00000
    827     124.5146      0.00000
    828     124.5973      0.00000
    829     124.6223      0.00000
    830     124.6223      0.00000
    831     124.6376      0.00000
    832     124.9796      0.00000
    833     124.9859      0.00000
    834     124.9974      0.00000
    835     124.9994      0.00000
    836     124.9994      0.00000
    837     125.0137      0.00000
    838     125.0137      0.00000
    839     125.0161      0.00000
    840     125.1502      0.00000
    841     125.1541      0.00000
    842     125.1541      0.00000
    843     125.1599      0.00000
    844     125.1736      0.00000
    845     125.1816      0.00000
    846     125.1816      0.00000
    847     125.1827      0.00000
    848     126.7183      0.00000
    849     127.7588      0.00000
    850     127.9108      0.00000
    851     127.9108      0.00000
    852     128.0276      0.00000
    853     128.2003      0.00000
    854     128.2022      0.00000
    855     128.2446      0.00000
    856     128.2446      0.00000
    857     128.3267      0.00000
    858     128.3566      0.00000
    859     128.3566      0.00000
    860     128.4162      0.00000
    861     128.4301      0.00000
    862     128.4301      0.00000
    863     128.4532      0.00000
    864     128.4819      0.00000
    865     128.4945      0.00000
    866     128.4945      0.00000
    867     128.5218      0.00000
    868     128.5306      0.00000
    869     128.5306      0.00000
    870     128.5321      0.00000
    871     128.5498      0.00000
    872     128.5547      0.00000
    873     128.5738      0.00000
    874     128.5740      0.00000
    875     128.5740      0.00000
    876     128.6008      0.00000
    877     128.6052      0.00000
    878     128.6052      0.00000
    879     128.6124      0.00000
    880     128.6160      0.00000
    881     128.6160      0.00000
    882     128.6262      0.00000
    883     128.6317      0.00000
    884     128.6415      0.00000
    885     128.6534      0.00000
    886     128.6594      0.00000
    887     128.6594      0.00000
    888     128.6701      0.00000
    889     128.6768      0.00000
    890     128.6776      0.00000
    891     128.6776      0.00000
    892     128.6842      0.00000
    893     128.6842      0.00000
    894     128.6975      0.00000
    895     128.6996      0.00000
    896     129.7151      0.00000
    897     129.9207      0.00000
    898     130.4159      0.00000
    899     130.7440      0.00000
    900     130.7440      0.00000
    901     130.8749      0.00000
    902     131.7382      0.00000
    903     131.8278      0.00000
    904     131.9189      0.00000
    905     131.9189      0.00000
    906     131.9566      0.00000
    907     131.9757      0.00000
    908     131.9757      0.00000
    909     131.9767      0.00000
    910     132.0640      0.00000
    911     132.0816      0.00000
    912     132.0816      0.00000
    913     132.1479      0.00000
    914     132.1603      0.00000
    915     132.2001      0.00000
    916     132.2001      0.00000
    917     132.2063      0.00000
    918     132.2672      0.00000
    919     132.2860      0.00000
    920     132.2917      0.00000
    921     132.2917      0.00000
    922     132.3007      0.00000
    923     132.3031      0.00000
    924     132.3031      0.00000
    925     132.3184      0.00000
    926     133.8783      0.00000
    927     134.4381      0.00000
    928     134.6831      0.00000
    929     134.7790      0.00000
    930     134.7790      0.00000
    931     134.9003      0.00000
    932     135.2713      0.00000
    933     135.4055      0.00000
    934     135.4055      0.00000
    935     135.4662      0.00000
    936     135.7179      0.00000
    937     135.7179      0.00000
    938     135.7266      0.00000
    939     135.7266      0.00000
    940     135.8176      0.00000
    941     135.8218      0.00000
    942     135.8218      0.00000
    943     135.8409      0.00000
    944     136.3624      0.00000
    945     136.3878      0.00000
    946     136.3878      0.00000
    947     136.3917      0.00000
    948     136.5551      0.00000
    949     136.5659      0.00000
    950     137.0160      0.00000
    951     138.2996      0.00000
    952     138.3000      0.00000
    953     138.3000      0.00000
    954     138.8063      0.00000
    955     138.8063      0.00000
    956     138.8230      0.00000
    957     138.8587      0.00000
    958     138.9318      0.00000
    959     139.0403      0.00000
    960     139.0838      0.00000
    961     139.1210      0.00000
    962     139.1210      0.00000
    963     139.1820      0.00000
    964     139.1820      0.00000
    965     139.2476      0.00000
    966     139.2666      0.00000
    967     139.2666      0.00000
    968     139.2908      0.00000
    969     139.3272      0.00000
    970     139.3664      0.00000
    971     139.3716      0.00000
    972     139.3716      0.00000
    973     139.4207      0.00000
    974     139.4880      0.00000
    975     139.6134      0.00000
    976     139.6351      0.00000
    977     139.6351      0.00000
    978     139.6749      0.00000
    979     139.6928      0.00000
    980     139.7449      0.00000
    981     139.7572      0.00000
    982     139.7572      0.00000
    983     139.7862      0.00000
    984     139.7939      0.00000
    985     139.7939      0.00000
    986     139.7951      0.00000
    987     139.8128      0.00000
    988     139.8445      0.00000
    989     139.8530      0.00000
    990     139.8530      0.00000
    991     139.8567      0.00000
    992     139.8567      0.00000
    993     139.8652      0.00000
    994     139.8652      0.00000
    995     139.8677      0.00000
    996     139.8736      0.00000
    997     139.8803      0.00000
    998     139.9485      0.00000
    999     139.9661      0.00000
   1000     139.9661      0.00000
   1001     139.9707      0.00000
   1002     139.9790      0.00000
   1003     139.9934      0.00000
   1004     139.9934      0.00000
   1005     139.9972      0.00000
   1006     140.0310      0.00000
   1007     140.0310      0.00000
   1008     140.0376      0.00000
   1009     140.0417      0.00000
   1010     140.0506      0.00000
   1011     140.0525      0.00000
   1012     140.0525      0.00000
   1013     140.0551      0.00000
   1014     140.0803      0.00000
   1015     140.0936      0.00000
   1016     140.0957      0.00000
   1017     140.0957      0.00000
   1018     140.0987      0.00000
   1019     140.0987      0.00000
   1020     140.0994      0.00000
   1021     140.1118      0.00000
   1022     143.2997      0.00000
   1023     145.4720      0.00000
   1024     145.7677      0.00000
   1025     145.7677      0.00000
   1026     145.8559      0.00000
   1027     146.2835      0.00000
   1028     146.4615      0.00000
   1029     146.5522      0.00000
   1030     146.5522      0.00000
   1031     146.6337      0.00000
   1032     146.6337      0.00000
   1033     146.6497      0.00000
   1034     146.6907      0.00000
   1035     146.7000      0.00000
   1036     146.7022      0.00000
   1037     146.7022      0.00000
   1038     146.7808      0.00000
   1039     146.7808      0.00000
   1040     146.8737      0.00000
   1041     146.8737      0.00000
   1042     146.8796      0.00000
   1043     146.8898      0.00000
   1044     147.0546      0.00000
   1045     147.0737      0.00000
   1046     147.6000      0.00000
   1047     148.3319      0.00000
   1048     148.5196      0.00000
   1049     148.5196      0.00000
   1050     149.0453      0.00000
   1051     149.0453      0.00000
   1052     149.1335      0.00000
   1053     149.4418      0.00000
   1054     149.5721      0.00000
   1055     149.6299      0.00000
   1056     149.6468      0.00000
   1057     149.6838      0.00000
   1058     149.6838      0.00000
   1059     149.7516      0.00000
   1060     149.9562      0.00000
   1061     149.9562      0.00000
   1062     149.9730      0.00000
   1063     150.0888      0.00000
   1064     150.1153      0.00000
   1065     150.1153      0.00000
   1066     150.2803      0.00000
   1067     150.3087      0.00000
   1068     150.3087      0.00000
   1069     150.3448      0.00000
   1070     150.3692      0.00000
   1071     150.3762      0.00000
   1072     150.4786      0.00000
   1073     150.4786      0.00000
   1074     150.5014      0.00000
   1075     150.5236      0.00000
   1076     150.5236      0.00000
   1077     150.5541      0.00000
   1078     150.5588      0.00000
   1079     150.5588      0.00000
   1080     150.6302      0.00000
   1081     150.6390      0.00000
   1082     150.6646      0.00000
   1083     150.6855      0.00000
   1084     150.6939      0.00000
   1085     150.6939      0.00000
   1086     150.7384      0.00000
   1087     150.7384      0.00000
   1088     150.7416      0.00000
   1089     150.7527      0.00000
   1090     150.8883      0.00000
   1091     150.9012      0.00000
   1092     150.9309      0.00000
   1093     150.9324      0.00000
   1094     150.9324      0.00000
   1095     150.9484      0.00000
   1096     150.9608      0.00000
   1097     150.9608      0.00000
   1098     151.0901      0.00000
   1099     151.0925      0.00000
   1100     151.0925      0.00000
   1101     151.0997      0.00000
   1102     151.1001      0.00000
   1103     151.1062      0.00000
   1104     151.1142      0.00000
   1105     151.1142      0.00000
   1106     151.1184      0.00000
   1107     151.1256      0.00000
   1108     151.1256      0.00000
   1109     151.1282      0.00000
   1110     151.2078      0.00000
   1111     151.2316      0.00000
   1112     151.2316      0.00000
   1113     151.2379      0.00000
   1114     151.2478      0.00000
   1115     151.2511      0.00000
   1116     151.2511      0.00000
   1117     151.2584      0.00000
   1118     151.2593      0.00000
   1119     151.2630      0.00000
   1120     151.2643      0.00000
   1121     151.2643      0.00000
   1122     151.2649      0.00000
   1123     151.2719      0.00000
   1124     151.2719      0.00000
   1125     151.2741      0.00000
   1126     151.2749      0.00000
   1127     151.2780      0.00000
   1128     151.2830      0.00000
   1129     151.2830      0.00000
   1130     151.2884      0.00000
   1131     151.2884      0.00000
   1132     151.2889      0.00000
   1133     151.2909      0.00000
   1134     151.3205      0.00000
   1135     151.3227      0.00000
   1136     151.3550      0.00000
   1137     151.3550      0.00000
   1138     151.3628      0.00000
   1139     151.3628      0.00000
   1140     151.3953      0.00000
   1141     151.4164      0.00000
   1142     153.4891      0.00000
   1143     153.8462      0.00000
   1144     153.8623      0.00000
   1145     153.8623      0.00000
   1146     153.9507      0.00000
   1147     154.0980      0.00000
   1148     154.0980      0.00000
   1149     154.1008      0.00000
   1150     154.2330      0.00000
   1151     154.2330      0.00000
   1152     154.2586      0.00000
   1153     154.2920      0.00000
   1154     154.3317      0.00000
   1155     154.3525      0.00000
   1156     154.3525      0.00000
   1157     154.3528      0.00000
   1158     154.4028      0.00000
   1159     154.4371      0.00000
   1160     154.4521      0.00000
   1161     154.4521      0.00000
   1162     154.4629      0.00000
   1163     154.4629      0.00000
   1164     154.4770      0.00000
   1165     154.4900      0.00000
   1166     154.7947      0.00000
   1167     154.8211      0.00000
   1168     154.8920      0.00000
   1169     154.8920      0.00000
   1170     154.9128      0.00000
   1171     154.9128      0.00000
   1172     154.9242      0.00000
   1173     154.9392      0.00000
   1174     154.9576      0.00000
   1175     154.9588      0.00000
   1176     154.9588      0.00000
   1177     154.9624      0.00000
   1178     154.9692      0.00000
   1179     154.9709      0.00000
   1180     154.9709      0.00000
   1181     154.9740      0.00000
   1182     155.0016      0.00000
   1183     155.0079      0.00000
   1184     155.0079      0.00000
   1185     155.0119      0.00000
   1186     155.0653      0.00000
   1187     155.0744      0.00000
   1188     155.0744      0.00000
   1189     155.0925      0.00000
   1190     157.0108      0.00000
   1191     157.7471      0.00000
   1192     157.8291      0.00000
   1193     157.8291      0.00000
   1194     157.9568      0.00000
   1195     157.9568      0.00000
   1196     158.0041      0.00000
   1197     158.0498      0.00000
   1198     158.0733      0.00000
   1199     158.1559      0.00000
   1200     158.2042      0.00000
   1201     158.2042      0.00000
   1202     158.2482      0.00000
   1203     158.2497      0.00000
   1204     158.2497      0.00000
   1205     158.2673      0.00000
   1206     158.3297      0.00000
   1207     158.3465      0.00000
   1208     158.3465      0.00000
   1209     158.3492      0.00000
   1210     158.3507      0.00000
   1211     158.3507      0.00000
   1212     158.3609      0.00000
   1213     158.3814      0.00000
   1214     160.1345      0.00000
   1215     161.2546      0.00000
   1216     161.4317      0.00000
   1217     161.4317      0.00000
   1218     161.6916      0.00000
   1219     161.7617      0.00000
   1220     161.8397      0.00000
   1221     161.8397      0.00000
   1222     161.8569      0.00000
   1223     161.9190      0.00000
   1224     161.9190      0.00000
   1225     161.9558      0.00000
   1226     161.9558      0.00000
   1227     161.9574      0.00000
   1228     161.9957      0.00000
   1229     161.9974      0.00000
   1230     162.0042      0.00000
   1231     162.0111      0.00000
   1232     162.0111      0.00000
   1233     162.0339      0.00000
   1234     162.0553      0.00000
   1235     162.0553      0.00000
   1236     162.0609      0.00000
   1237     162.0707      0.00000
   1238     163.0744      0.00000
   1239     164.2530      0.00000
   1240     164.2530      0.00000
   1241     164.3091      0.00000
   1242     164.4884      0.00000
   1243     164.7867      0.00000
   1244     164.7867      0.00000
   1245     164.7893      0.00000
   1246     164.9059      0.00000
   1247     164.9773      0.00000
   1248     164.9773      0.00000
   1249     164.9910      0.00000
   1250     165.0428      0.00000
   1251     165.0791      0.00000
   1252     165.1344      0.00000
   1253     165.1344      0.00000
   1254     165.1793      0.00000
   1255     165.2316      0.00000
   1256     165.2316      0.00000
   1257     165.3019      0.00000
   1258     165.3470      0.00000
   1259     165.3470      0.00000
   1260     165.3472      0.00000
   1261     165.3746      0.00000
   1262     165.3967      0.00000
   1263     165.4112      0.00000
   1264     165.4236      0.00000
   1265     165.4236      0.00000
   1266     165.4631      0.00000
   1267     165.4631      0.00000
   1268     165.4660      0.00000
   1269     165.4819      0.00000
   1270     165.5156      0.00000
   1271     165.5340      0.00000
   1272     165.5350      0.00000
   1273     165.5350      0.00000
   1274     165.5619      0.00000
   1275     165.5626      0.00000
   1276     165.5626      0.00000
   1277     165.5628      0.00000
   1278     165.5721      0.00000
   1279     165.5957      0.00000
   1280     165.6271      0.00000
   1281     165.6271      0.00000
   1282     165.6358      0.00000
   1283     165.6358      0.00000
   1284     165.6626      0.00000
   1285     165.6777      0.00000
   1286     166.0469      0.00000
   1287     166.0661      0.00000
   1288     166.0698      0.00000
   1289     166.0698      0.00000
   1290     166.0753      0.00000
   1291     166.0753      0.00000
   1292     166.0828      0.00000
   1293     166.1025      0.00000
   1294     166.1232      0.00000
   1295     166.1349      0.00000
   1296     166.1566      0.00000
   1297     166.1566      0.00000
   1298     166.1706      0.00000
   1299     166.1706      0.00000
   1300     166.1715      0.00000
   1301     166.1823      0.00000
   1302     166.1902      0.00000
   1303     166.1994      0.00000
   1304     166.1994      0.00000
   1305     166.2020      0.00000
   1306     166.2051      0.00000
   1307     166.2139      0.00000
   1308     166.2139      0.00000
   1309     166.2272      0.00000
   1310     168.5968      0.00000
   1311     169.0423      0.00000
   1312     169.2189      0.00000
   1313     169.2189      0.00000
   1314     169.2929      0.00000
   1315     169.3614      0.00000
   1316     169.3912      0.00000
   1317     169.3912      0.00000
   1318     169.3913      0.00000
   1319     169.4090      0.00000
   1320     169.4446      0.00000
   1321     169.4446      0.00000
   1322     169.4698      0.00000
   1323     169.4698      0.00000
   1324     169.5046      0.00000
   1325     169.5046      0.00000
   1326     169.5180      0.00000
   1327     169.5213      0.00000
   1328     169.5234      0.00000
   1329     169.5479      0.00000
   1330     169.5499      0.00000
   1331     169.5499      0.00000
   1332     169.5614      0.00000
   1333     169.5711      0.00000
   1334     169.5803      0.00000
   1335     169.6019      0.00000
   1336     169.6019      0.00000
   1337     169.6043      0.00000
   1338     169.6338      0.00000
   1339     169.6398      0.00000
   1340     169.6398      0.00000
   1341     169.6412      0.00000
   1342     169.6514      0.00000
   1343     169.6514      0.00000
   1344     169.6530      0.00000
   1345     169.6550      0.00000
   1346     169.6787      0.00000
   1347     169.6808      0.00000
   1348     169.6808      0.00000
   1349     169.6933      0.00000
   1350     169.6986      0.00000
   1351     169.7072      0.00000
   1352     169.7092      0.00000
   1353     169.7165      0.00000
   1354     169.7165      0.00000
   1355     169.7208      0.00000
   1356     169.7211      0.00000
   1357     169.7211      0.00000
   1358     173.5348      0.00000
   1359     176.3029      0.00000
   1360     176.3885      0.00000
   1361     176.3885      0.00000
   1362     176.6551      0.00000
   1363     176.6687      0.00000
   1364     176.6687      0.00000
   1365     176.7161      0.00000
   1366     176.9953      0.00000
   1367     177.4830      0.00000
   1368     178.3072      0.00000
   1369     178.3531      0.00000
   1370     178.3531      0.00000
   1371     178.9628      0.00000
   1372     179.3129      0.00000
   1373     179.6145      0.00000
   1374     179.6177      0.00000
   1375     179.6177      0.00000
   1376     179.8012      0.00000
   1377     179.8012      0.00000
   1378     179.8462      0.00000
   1379     180.0584      0.00000
   1380     180.1062      0.00000
   1381     180.1598      0.00000
   1382     180.1598      0.00000
   1383     180.1831      0.00000
   1384     180.2173      0.00000
   1385     180.2231      0.00000
   1386     180.2262      0.00000
   1387     180.2262      0.00000
   1388     180.2820      0.00000
   1389     180.2820      0.00000
   1390     180.3006      0.00000
   1391     180.3006      0.00000
   1392     180.3095      0.00000
   1393     180.3328      0.00000
   1394     180.3328      0.00000
   1395     180.3604      0.00000
   1396     180.7781      0.00000
   1397     180.9102      0.00000
   1398     180.9102      0.00000
   1399     180.9317      0.00000
   1400     180.9767      0.00000
   1401     180.9816      0.00000
   1402     180.9816      0.00000
   1403     180.9983      0.00000
   1404     181.0036      0.00000
   1405     181.0051      0.00000
   1406     181.0051      0.00000
   1407     181.0154      0.00000
   1408     181.0220      0.00000
   1409     181.0325      0.00000
   1410     181.0325      0.00000
   1411     181.0429      0.00000
   1412     181.1140      0.00000
   1413     181.1151      0.00000
   1414     181.1151      0.00000
   1415     181.1158      0.00000
   1416     181.1191      0.00000
   1417     181.1223      0.00000
   1418     181.1223      0.00000
   1419     181.1261      0.00000
   1420     181.7161      0.00000
   1421     182.3075      0.00000
   1422     182.5504      0.00000
   1423     182.5504      0.00000
   1424     182.9501      0.00000
   1425     182.9501      0.00000
   1426     182.9881      0.00000
   1427     183.0627      0.00000
   1428     183.0907      0.00000
   1429     183.2782      0.00000
   1430     183.3440      0.00000
   1431     183.3784      0.00000
   1432     183.4579      0.00000
   1433     183.4579      0.00000
   1434     183.4667      0.00000
   1435     183.5706      0.00000
   1436     183.5706      0.00000
   1437     183.6128      0.00000
   1438     183.6187      0.00000
   1439     183.6715      0.00000
   1440     183.6715      0.00000
   1441     183.7855      0.00000
   1442     183.7990      0.00000
   1443     183.9230      0.00000
   1444     183.9731      0.00000
   1445     183.9731      0.00000
   1446     183.9978      0.00000
   1447     183.9994      0.00000
   1448     183.9994      0.00000
   1449     184.0282      0.00000
   1450     184.0488      0.00000
   1451     184.0488      0.00000
   1452     184.0711      0.00000
[...]
  153                  map_backward                          0.002554                  2   8
  154                    map_gather                            0.000603                1   9
  155                    m_alltoallv_z                         0.000717                1   9
  156                    map_scatter                           0.001225                1   9
  157        forloc                                0.005307                            1   3
  158          m_sumb_d                              0.000173                          1   4
  159        fornlr                                5.644965                            1   3
  160          rspher_all                            0.001030                          3   4
  161          phaser                                0.000000                          3   4
  162          rpro_isp                              5.616462                          3   4
  163            fftwav_mpi                            5.516104                     4965   5
  164              fftwav                                5.514611                   4965   6
  165                fft3d                                 4.982352                 4965   7
  166            rpromu                                0.094234                     1242   5
  167              rpromu_gemm                           0.058321                   2484   6
  168          m_sumb_d                              0.022190                          1   4
  169        fordep                                0.002160                            1   3
  170          setdij_                               0.002152                          6   4
  171            m_sumb_d                              0.000062                        6   5
  172        setdij_                               0.006754                           20   3
  173          m_sumb_d                              0.000197                         20   4
  174        set_dd_magatom                        0.000000                            1   3
  175        set_dd_paw                            0.001501                            1   3
  176          m_sumb_d                              0.001495                          7   4
  177        strkin                                0.033399                            1   3
  178          m_sumb_d                              0.000007                          1   4
  179        strelo                                0.007229                            1   3
  180          m_sumb_d                              0.000015                          2   4
  181        strnlr                               16.894679                            1   3
  182          rspher_all                            0.002986                          9   4
  183          phaser                                0.000000                          9   4
  184          rpro_isp                             16.845573                          9   4
  185            fftwav_mpi                           16.552121                    14895   5
  186              fftwav                               16.547647                  14895   6
  187                fft3d                                14.977037                14895   7
  188            rpromu                                0.275654                     3726   5
  189              rpromu_gemm                           0.170521                   7452   6
  190          m_sumb_d                              0.030448                          1   4
  191        chggra                                0.022297                            1   3
  192          fft3d_mpi                             0.012632                          3   4
  193            fftbrc_mpi                            0.012251                        3   5
  194              fftbas_plan_mpi                       0.012250                      3   6
  195                dfftw_execute                         0.005302                    9   7
  196                map_backward                          0.002439                    2   7
  197                  map_gather                            0.000644                  1   8
  198                  m_alltoallv_z                         0.000536                  1   8
  199                  map_scatter                           0.001252                  1   8
  200                map_forward                           0.004311                    4   7
  201                  map_gather                            0.001961                  2   8
  202                  m_alltoallv_z                         0.001012                  2   8
  203                  map_scatter                           0.001325                  2   8
  204          m_sumb_d                              0.000008                          2   4
  205          pothar                                0.001208                          1   4
  206            m_sumb_d                              0.000015                        1   5
  207        forhar                                0.006700                            1   3
  208          m_sumb_d                              0.000080                          1   4
  209        brmix                                 0.003059                            1   3
  210          m_sumb_d                              0.000081                          6   4
  211          brpre                                 0.000031                          1   4
  212          setg0                                 0.001284                          2   4
  213          broyd                                 0.000047                          1   4
  214            m_sumb_d                              0.000002                        2   5
  215            brsav                                 0.000024                        5   5
  216            brget                                 0.000004                        3   5
  217        m_bcast_d                             0.000006                            2   3
  218      potlok                                0.105525                              1   2
  219        fft3d_mpi                             0.053264                           13   3
  220          fftbrc_mpi                            0.050561                         13   4
  221            fftbas_plan_mpi                       0.050558                       13   5
  222              dfftw_execute                         0.021580                     39   6
  223              map_forward                           0.013113                     14   6
  224                map_gather                            0.005831                    8   7
  225                m_alltoallv_z                         0.003287                    8   7
  226                map_scatter                           0.003970                    8   7
  227              map_backward                          0.014964                     12   6
  228                map_gather                            0.003947                    6   7
  229                m_alltoallv_z                         0.003497                    6   7
  230                map_scatter                           0.007489                    6   7
  231        ggaall_grid                           0.022339                            1   3
  232        m_sumb_d                              0.000093                            5   3
  233        pothar                                0.001254                            1   3
  234          m_sumb_d                              0.000021                          1   4
  235        m_bcast_d                             0.000336                            1   3
  236      potlok_metagga                        0.000000                              1   2
  237      set_dd_magatom                        0.000000                              1   2
  238      set_dd_paw                            0.001513                              1   2
  239        m_sumb_d                              0.001504                            7   3
  240      fft3d_mpi                             0.006613                              2   2
  241        fftbrc_mpi                            0.006336                            2   3
  242          fftbas_plan_mpi                       0.006334                          2   4
  243            dfftw_execute                         0.003465                        6   5
  244            map_forward                           0.002716                        4   5
  245              map_gather                            0.000502                      2   6
  246              m_alltoallv_z                         0.000946                      2   6
  247              map_scatter                           0.001263                      2   6
  248      densta                                0.000271                              1   2
  249        m_sumb_d                              0.000069                            5   3
 
 Flat profile
 ============
 
             routine name                   CPU           calls
 ---------------------------------------------------------------
 bg_pdssyex_zheevx                      34.444320           1
 fft3d                                  25.018361       24827
 orth1_nosubindex                        6.486502         414
 total_time                              4.910944           1
 lincom_slice                            4.896440          52
 bg_ppotrf_trtri                         3.362406           1
 fftwav                                  2.512755       23172
 m_sumb_d                                1.412698        7386
 vhamil                                  0.918629        1655
 m_bcast_z                               0.331697        6621
 rpromu_gemm                             0.250322       10764
 recon_slice                             0.192311          52
 m_alltoall_d                            0.187928       18205
 rpromu                                  0.154323        5382
 orth1_distri                            0.087603         414
 distri_slice                            0.076956         414
 lincom_distri                           0.066980           2
 potlok                                  0.057607           2
 dfftw_execute                           0.056086         105
 ggaall_grid                             0.044750           2
 eddiag                                  0.042875           1
 strkin                                  0.033392           1
 map_scatter                             0.029365          39
 rpro_isp                                0.026315          13
 kinhamil                                0.025060        1655
 map_gather                              0.023695          39
 fftext_mpi                              0.022646        1655
 m_alltoallv_z                           0.018116          39
 redis_pw                                0.017454         417
 strnlr                                  0.015672           1
 setdij_                                 0.010193          29
 elmin                                   0.010074           1
 chggra                                  0.008449           1
 fft3d_mpi                               0.008441        1690
 orthch                                  0.007296           1
 strelo                                  0.007214           1
 fftwav_mpi                              0.007041       23172
 forhar                                  0.006620           1
 fornlr                                  0.005282           1
 forloc                                  0.005134           1
 rspher_all                              0.004463          14
 augmentation_charge                     0.004202           2
 pothar                                  0.003687           3
 fftbas_plan_mpi                         0.002442          35
 overl                                   0.002166           2
 hamilt_local                            0.001843        1655
 depsum                                  0.001826           2
 stufak                                  0.001738           1
 brmix                                   0.001616           1
 redis_proj                              0.001461           6
 setg0                                   0.001284           2
 soft_charge                             0.001141           2
 set_charge                              0.001057           2
 force_and_stress                        0.000992           1
 m_bcast_d                               0.000951           8
 m_sum_g                                 0.000538         466
 densta                                  0.000410           2
 pw_charge                               0.000339           2
 fewald                                  0.000319           1
 brgrid                                  0.000252           1
 fft_gq                                  0.000119           2
 map_backward                            0.000092          34
 map_forward                             0.000072          36
 crpa_reader                             0.000043           1
 rsp                                     0.000035           1
 brpre                                   0.000031           1
 brsav                                   0.000024           5
 set_dd_paw                              0.000021           3
 fftbrc_mpi                              0.000018          35
 broyd                                   0.000017           1
 fordep                                  0.000008           1
 rcp                                     0.000005           1
 brget                                   0.000004           3
 proall                                  0.000003           1
 choleski                                0.000002           1
 potlok_metagga                          0.000001           2
 vectorpot                               0.000001           2
 redis_pw_over_bands                     0.000001           1
 FERMAT_RAZOR                            0.000001           4
 rotate_active_occupied_orbital          0.000000           1
 shift_bands_between_low_high            0.000000           1
 phaser                                  0.000000          13
 set_dd_magatom                          0.000000           3
 ---------------------------------------------------------------
  summed up times    85.833178997039795     
 
 Accumulative profile
 ====================
 
             routine name                   CPU           calls
 ---------------------------------------------------------------
 total_time                             85.833179           1
 elmin                                  46.454173           1
 eddiag                                 46.335118           1
 bg_pdssyex_zheevx                      34.444320           1
 fftwav_mpi                             25.824985       23172
 fftwav                                 25.817944       23172
 fft3d                                  25.018361       24827
 rpro_isp                               24.382304          13
 force_and_stress                       22.640585           1
 strnlr                                 16.894679           1
 orthch                                  9.218907           1
 orth1_distri                            7.274944         414
 orth1_nosubindex                        6.486502         414
 lincom_distri                           5.659244           2
 fornlr                                  5.644965           1
 lincom_slice                            4.896440          52
 choleski                                3.362408           1
 bg_ppotrf_trtri                         3.362406           1
 hamilt_local                            2.682577        1655
 proall                                  1.920272           1
 fft3d_mpi                               1.851499        1690
 kinhamil                                1.762105        1655
 fftext_mpi                              1.737045        1655
 m_sumb_d                                1.412698        7386
 m_sum_g                                 1.127397         466
 vhamil                                  0.918629        1655
 rpromu                                  0.404645        5382
 m_bcast_z                               0.331697        6621
 rpromu_gemm                             0.250322       10764
 potlok                                  0.212151           2
 recon_slice                             0.192311          52
 redis_pw                                0.187955         417
 m_alltoall_d                            0.187928       18205
 fftbrc_mpi                              0.129887          35
 fftbas_plan_mpi                         0.129868          35
 distri_slice                            0.076956         414
 dfftw_execute                           0.056086         105
 ggaall_grid                             0.044750           2
 map_backward                            0.038328          34
 strkin                                  0.033399           1
 map_forward                             0.033012          36
 map_scatter                             0.029365          39
 set_charge                              0.023734           2
 map_gather                              0.023695          39
 chggra                                  0.022297           1
 redis_proj                              0.018888           6
 m_alltoallv_z                           0.018116          39
 augmentation_charge                     0.013395           2
 setdij_                                 0.010543          29
 soft_charge                             0.007403           2
 strelo                                  0.007229           1
 forhar                                  0.006700           1
 forloc                                  0.005307           1
 set_dd_paw                              0.004525           3
 rspher_all                              0.004463          14
 pothar                                  0.003729           3
 brmix                                   0.003059           1
 fft_gq                                  0.002540           2
 overl                                   0.002166           2
 fordep                                  0.002160           1
 depsum                                  0.001879           2
 stufak                                  0.001738           1
 setg0                                   0.001284           2
 m_bcast_d                               0.000951           8
 densta                                  0.000518           2
 fewald                                  0.000488           1
 pw_charge                               0.000339           2
 brgrid                                  0.000252           1
 broyd                                   0.000047           1
 crpa_reader                             0.000043           1
 rsp                                     0.000035           1
 brpre                                   0.000031           1
 brsav                                   0.000024           5
 rcp                                     0.000005           1
 brget                                   0.000004           3
 potlok_metagga                          0.000001           2
 vectorpot                               0.000001           2
 redis_pw_over_bands                     0.000001           1
 FERMAT_RAZOR                            0.000001           4
 rotate_active_occupied_orbital          0.000000           1
 shift_bands_between_low_high            0.000000           1
 phaser                                  0.000000          13
 set_dd_magatom                          0.000000           3
 ---------------------------------------------------------------
 
Profiling took   0.017413  0.012082  0.004427  0.004396 seconds
Profiling took   0.016059 seconds
