 vasp.6.3.0 20Jan22 (build Dec  8 2022 17:40:58) gamma-only                      
 executed on             LinuxGNU date 2024.05.03  09:32:39
 running on    4 total cores
 distrk:  each k-point on    4 cores,    1 groups
 distr:  one band on NCORE=   1 cores,    4 groups


--------------------------------------------------------------------------------------------------------


 INCAR:
   ENCUT = 500
   SIGMA = 0.001
   EDIFF = 1E-6
   LHFCALC = .TRUE.
   AEXX = 1.0
   ALGO = C
   NELM = 10000
   ISYM = -1
   PREC = Accurate
   LREAL = .TRUE.

 POTCAR:    PAW_PBE Li_GW 11May2007               
 POTCAR:    PAW_PBE H_GW 21Apr2008                
 POTCAR:    PAW_PBE Li_GW 11May2007               
   SHA256 =  c4b788acc6a1447003eb32b05f4862c502ff3cce9bf6cb6ad4cc41d5ac668445 Li_GW/POTCAR          
   COPYR  = (c) Copyright 11May2007 Georg Kresse                                                    
   COPYR  = This file is part of the software VASP. Any use, copying, and all other rights are regul
   COPYR  = If you do not have a valid VASP license, you may not use, copy or distribute this file. 
   VRHFIN =Li: s1p0                                                                                 
   LEXCH  = PE                                                                                      
   EATOM  =     5.3001 eV,    0.3895 Ry                                                             
                                                                                                    
   TITEL  = PAW_PBE Li_GW 11May2007                                                                 
   LULTRA =        F    use ultrasoft PP ?                                                          
   IUNSCR =        1    unscreen: 0-lin 1-nonlin 2-no                                               
   RPACOR =    1.500    partial core radius                                                         
   POMASS =    7.010; ZVAL   =    1.000    mass and valenz                                          
   RCORE  =    2.100    outmost cutoff radius                                                       
   RWIGS  =    2.600; RWIGS  =    1.376    wigner-seitz radius (au A)                               
   ENMAX  =  112.104; ENMIN  =   84.078 eV                                                          
   ICORE  =        2    local potential                                                             
   LCOR   =        T    correct aug charges                                                         
   LPAW   =        T    paw PP                                                                      
   EAUG   =  291.793                                                                                
   DEXC   =    0.000                                                                                
   RMAX   =    2.149    core radius for proj-oper                                                   
   RAUG   =    1.300    factor for augmentation sphere                                              
   RDEP   =    2.232    radius for radial grids                                                     
   RDEPT  =    1.854    core radius for aug-charge                                                  
                                                                                                    
   Atomic configuration                                                                             
    4 entries                                                                                       
     n  l   j            E        occ.                                                              
     1  0  0.50       -51.8549   2.0000                                                             
     2  0  0.50        -2.8742   1.0000                                                             
     2  1  0.50        -2.8708   0.0000                                                             
     3  2  1.50        -1.3606   0.0000                                                             
   Description                                                                                      
     l       E           TYP  RCUT    TYP  RCUT                                                     
     0     -2.8742051     23  2.100                                                                 
     0     54.4233040     23  2.100                                                                 
     1     -2.8708293     23  2.050                                                                 
     2     -1.3605826     15  2.050                                                                 
  local pseudopotential read in
  partial core-charges read in
  partial kinetic energy density read in
  kinetic energy density of atom read in
  atomic valenz-charges read in
  non local Contribution for L=           0  read in
    real space projection operators read in
  non local Contribution for L=           0  read in
    real space projection operators read in
  non local Contribution for L=           1  read in
    real space projection operators read in
    PAW grid and wavefunctions read in

   number of l-projection  operators is LMAX  =           3
   number of lm-projection operators is LMMAX =           5

 POTCAR:    PAW_PBE H_GW 21Apr2008                
   SHA256 =  cecc88617a3d1ece9865646f5d462fc0f44fd1f68d6f2eb08f18a2e421902afb H_GW/POTCAR           
   COPYR  = (c) Copyright 21Apr2008 Georg Kresse                                                    
   COPYR  = This file is part of the software VASP. Any use, copying, and all other rights are regul
   COPYR  = If you do not have a valid VASP license, you may not use, copy or distribute this file. 
   VRHFIN =H: ultrasoft test                                                                        
   LEXCH  = PE                                                                                      
   EATOM  =    12.4884 eV,    0.9179 Ry                                                             
                                                                                                    
   TITEL  = PAW_PBE H_GW 21Apr2008                                                                  
   LULTRA =        F    use ultrasoft PP ?                                                          
   IUNSCR =        0    unscreen: 0-lin 1-nonlin 2-no                                               
   RPACOR =    0.000    partial core radius                                                         
   POMASS =    1.000; ZVAL   =    1.000    mass and valenz                                          
   RCORE  =    1.100    outmost cutoff radius                                                       
   RWIGS  =    1.100; RWIGS  =    0.582    wigner-seitz radius (au A)                               
   ENMAX  =  300.000; ENMIN  =  250.000 eV                                                          
   RCLOC  =    0.701    cutoff for local pot                                                        
   LCOR   =        T    correct aug charges                                                         
   LPAW   =        T    paw PP                                                                      
   EAUG   =  500.000                                                                                
   RMAX   =    1.123    core radius for proj-oper                                                   
   RAUG   =    1.200    factor for augmentation sphere                                              
   RDEP   =    1.112    radius for radial grids                                                     
   RDEPT  =    1.100    core radius for aug-charge                                                  
                                                                                                    
   Atomic configuration                                                                             
    3 entries                                                                                       
     n  l   j            E        occ.                                                              
     1  0  0.50        -6.4927   1.0000                                                             
     2  1  0.50        -3.4015   0.0000                                                             
     3  2  1.50        13.6058   0.0000                                                             
   Description                                                                                      
     l       E           TYP  RCUT    TYP  RCUT                                                     
     0     -6.4927495     23  0.950                                                                 
     0      6.8029130     23  0.950                                                                 
     1     -4.0817478     23  1.100                                                                 
     1    108.8466080     23  1.100                                                                 
     2     81.6349560     23  1.100                                                                 
  local pseudopotential read in
  kinetic energy density of atom read in
  atomic valenz-charges read in
  non local Contribution for L=           0  read in
    real space projection operators read in
  non local Contribution for L=           0  read in
    real space projection operators read in
  non local Contribution for L=           1  read in
    real space projection operators read in
  non local Contribution for L=           1  read in
    real space projection operators read in
  non local Contribution for L=           2  read in
    real space projection operators read in
    PAW grid and wavefunctions read in

   number of l-projection  operators is LMAX  =           5
   number of lm-projection operators is LMMAX =          13

 -----------------------------------------------------------------------------
|                                                                             |
|               ----> ADVICE to this user running VASP <----                  |
|                                                                             |
|     You have a (more or less) 'small supercell' and for smaller cells       |
|     it is recommended to use the reciprocal-space projection scheme!        |
|     The real-space optimization is not efficient for small cells and it     |
|     is also less accurate ...                                               |
|     Therefore, set LREAL=.FALSE. in the INCAR file.                         |
|                                                                             |
 -----------------------------------------------------------------------------

 -----------------------------------------------------------------------------
|                                                                             |
|           W    W    AA    RRRRR   N    N  II  N    N   GGGG   !!!           |
|           W    W   A  A   R    R  NN   N  II  NN   N  G    G  !!!           |
|           W    W  A    A  R    R  N N  N  II  N N  N  G       !!!           |
|           W WW W  AAAAAA  RRRRR   N  N N  II  N  N N  G  GGG   !            |
|           WW  WW  A    A  R   R   N   NN  II  N   NN  G    G                |
|           W    W  A    A  R    R  N    N  II  N    N   GGGG   !!!           |
|                                                                             |
|     The real-space projection scheme for the treatment of the non-local     |
|     pseudopotentials has been switched on but on file POTCAR I have not     |
|     found any entries, signalling me that you have never performed a        |
|     real-space optimization of all non-local projectors! BE WARNED that     |
|     a calculation using the real-space projection scheme together with      |
|     non-local projectors which were not real-space optimized (according     |
|     to the plane-wave cutoff used in this calculation) might give more      |
|     or less inaccurate results. I hope you know what you are doing.         |
|                                                                             |
 -----------------------------------------------------------------------------

  PAW_PBE Li_GW 11May2007               :
 energy of atom  1       EATOM=   -5.3001
 kinetic energy error for atom=    0.0000 (will be added to EATOM!!)
  PAW_PBE H_GW 21Apr2008                :
 energy of atom  2       EATOM=  -12.4884
 kinetic energy error for atom=    0.0109 (will be added to EATOM!!)


 POSCAR: LiH
  positions in cartesian coordinates
  No initial velocities read in
 exchange correlation table for  LEXCH =        8
   RHO(1)=    0.500       N(1)  =     2000
   RHO(2)=  100.500       N(2)  =     4000



--------------------------------------------------------------------------------------------------------


 ion  position               nearest neighbor table
   1  0.000  0.000  0.000-   2 1.62
   2  0.000  0.000  0.255-   1 1.62


IMPORTANT INFORMATION: All symmetrisations will be switched off!
NOSYMM: (Re-)initialisation of all symmetry stuff for point group C_1.


----------------------------------------------------------------------------------------

                                     Primitive cell                                     

  volume of cell :     256.0629

  direct lattice vectors                    reciprocal lattice vectors
     6.350124000  0.000000000  0.000000000     0.157477240  0.000000000  0.000000000
     0.000000000  6.350124000  0.000000000     0.000000000  0.157477240  0.000000000
     0.000000000  0.000000000  6.350124000     0.000000000  0.000000000  0.157477240

  length of vectors
     6.350124000  6.350124000  6.350124000     0.157477240  0.157477240  0.157477240

  position of ions in fractional coordinates (direct lattice)
     0.000000000  0.000000000  0.000000000
     0.000000000  0.000000000  0.255280417

  ion indices of the primitive-cell ions
   primitive index   ion index
                 1           1
                 2           2

----------------------------------------------------------------------------------------



 KPOINTS: Automatically generated mesh            

Automatic generation of k-mesh.
 Grid dimensions read from file:
 generate k-points for:    1    1    1

 Generating k-lattice:

  Cartesian coordinates                     Fractional coordinates (reciprocal lattice)
     0.157477240  0.000000000  0.000000000     1.000000000  0.000000000  0.000000000
     0.000000000  0.157477240  0.000000000     0.000000000  1.000000000  0.000000000
     0.000000000  0.000000000  0.157477240     0.000000000  0.000000000  1.000000000

  Length of vectors
     0.157477240  0.157477240  0.157477240

  Shift w.r.t. Gamma in fractional coordinates (k-lattice)
     0.000000000  0.000000000  0.000000000

 
 Subroutine IBZKPT returns following result:
 ===========================================
 
 Found      1 irreducible k-points:
 
 Following reciprocal coordinates:
            Coordinates               Weight
  0.000000  0.000000  0.000000      1.000000
 
 Following cartesian coordinates:
            Coordinates               Weight
  0.000000  0.000000  0.000000      1.000000
 
 WARNING: full set of k-points will be restricted to regular points only.

 
 Subroutine IBZKPT_HF returns following result:
 ==============================================
 
 Found      1 k-points in 1st BZ
 the following      1 k-points will be used (e.g. in the exchange kernel)
 Following reciprocal coordinates:   # in IRBZ
  0.000000  0.000000  0.000000    1.00000000   1 t-inv F


--------------------------------------------------------------------------------------------------------




 Dimension of arrays:
   k-points           NKPTS =      1   k-points in BZ     NKDIM =      1   number of bands    NBANDS=      8
   number of dos      NEDOS =    301   number of ions     NIONS =      2
   non local maximal  LDIM  =      5   non local SUM 2l+1 LMDIM =     13
   total plane-waves  NPLWV = 110592
   max r-space proj   IRMAX =   2710   max aug-charges    IRDMAX=  16943
   dimension x,y,z NGX =    48 NGY =   48 NGZ =   48
   dimension x,y,z NGXF=    96 NGYF=   96 NGZF=   96
   support grid    NGXF=    96 NGYF=   96 NGZF=   96
   ions per type =               1   1
   NGX,Y,Z   is equivalent  to a cutoff of  12.57, 12.57, 12.57 a.u.
   NGXF,Y,Z  is equivalent  to a cutoff of  25.13, 25.13, 25.13 a.u.

 SYSTEM =  unknown system                          
 POSCAR =  LiH                                     

 Startparameter for this run:
   NWRITE =      2    write-flag & timer
   PREC   = accura    normal or accurate (medium, high low for compatibility)
   ISTART =      1    job   : 0-new  1-cont  2-samecut
   ICHARG =      0    charge: 1-file 2-atom 10-const
   ISPIN  =      1    spin polarized calculation?
   LNONCOLLINEAR =      F non collinear calculations
   LSORBIT =      F    spin-orbit coupling
   INIWAV =      1    electr: 0-lowe 1-rand  2-diag
   LASPH  =      F    aspherical Exc in radial PAW
 Electronic Relaxation 1
   ENCUT  =  500.0 eV  36.75 Ry    6.06 a.u.  11.58 11.58 11.58*2*pi/ulx,y,z
   ENINI  =  500.0     initial cutoff
   ENAUG  =  500.0 eV  augmentation charge cutoff
   NELM   =  10000;   NELMIN=  2; NELMDL=  0     # of ELM steps 
   EDIFF  = 0.1E-05   stopping-criterion for ELM
   LREAL  =      T    real-space projection
   NLSPLINE    = F    spline interpolate recip. space projectors
   LCOMPAT=      F    compatible to vasp.4.4
   GGA_COMPAT  = T    GGA compatible to vasp.4.4-vasp.4.6
   LMAXPAW     = -100 max onsite density
   LMAXMIX     =    2 max onsite mixed and CHGCAR
   VOSKOWN=      0    Vosko Wilk Nusair interpolation
   ROPT   =    0.00000   0.00000
 Ionic relaxation
   EDIFFG = 0.1E-04   stopping-criterion for IOM
   NSW    =      0    number of steps for IOM
   NBLOCK =      1;   KBLOCK =      1    inner block; outer block 
   IBRION =     -1    ionic relax: 0-MD 1-quasi-New 2-CG
   NFREE  =      0    steps in history (QN), initial steepest desc. (CG)
   ISIF   =      0    stress and relaxation
   IWAVPR =     10    prediction:  0-non 1-charg 2-wave 3-comb
   ISYM   =     -1    0-nonsym 1-usesym 2-fastsym
   LCORR  =      T    Harris-Foulkes like correction to forces

   POTIM  = 0.5000    time-step for ionic-motion
   TEIN   =    0.0    initial temperature
   TEBEG  =    0.0;   TEEND  =   0.0 temperature during run
   SMASS  =  -3.00    Nose mass-parameter (am)
   estimated Nose-frequenzy (Omega)   =  0.10E-29 period in steps = 0.13E+47 mass=  -0.922E-27a.u.
   SCALEE = 1.0000    scale energy and forces
   NPACO  =    256;   APACO  = 10.0  distance and # of slots for P.C.
   PSTRESS=    0.0 pullay stress

  Mass of Ions in am
   POMASS =   7.01  1.00
  Ionic Valenz
   ZVAL   =   1.00  1.00
  Atomic Wigner-Seitz radii
   RWIGS  =  -1.00 -1.00
  virtual crystal weights 
   VCA    =   1.00  1.00
   NELECT =       2.0000    total number of electrons
   NUPDOWN=      -1.0000    fix difference up-down

 DOS related values:
   EMIN   =  10.00;   EMAX   =-10.00  energy-range for DOS
   EFERMI =   0.00
   ISMEAR =     1;   SIGMA  =   0.00  broadening in eV -4-tet -1-fermi 0-gaus

 Electronic relaxation 2 (details)
   IALGO  =     58    algorithm
   LDIAG  =      T    sub-space diagonalisation (order eigenvalues)
   LSUBROT=      F    optimize rotation matrix (better conditioning)
   TURBO    =      0    0=normal 1=particle mesh
   IRESTART =      0    0=no restart 2=restart with 2 vectors
   NREBOOT  =      0    no. of reboots
   NMIN     =      0    reboot dimension
   EREF     =   0.00    reference energy to select bands
   IMIX   =      4    mixing-type and parameters
     AMIX     =   0.40;   BMIX     =  1.00
     AMIX_MAG =   1.60;   BMIX_MAG =  1.00
     AMIN     =   0.10
     WC   =   100.;   INIMIX=   1;  MIXPRE=   1;  MAXMIX= -45

 Intra band minimization:
   WEIMIN = 0.0000     energy-eigenvalue tresh-hold
   EBREAK =  0.31E-07  absolut break condition
   DEPER  =   0.30     relativ break condition  

   TIME   =   0.40     timestep for ELM

  volume/ion in A,a.u.               =     128.03       864.00
  Fermi-wavevector in a.u.,A,eV,Ry     =   0.324815  0.613811  1.435479  0.105505
  Thomas-Fermi vector in A             =   1.215267

 Write flags
   LWAVE        =      T    write WAVECAR
   LDOWNSAMPLE  =      F    k-point downsampling of WAVECAR
   LCHARG       =      T    write CHGCAR
   LVTOT        =      F    write LOCPOT, total local potential
   LVHAR        =      F    write LOCPOT, Hartree potential only
   LELF         =      F    write electronic localiz. function (ELF)
   LORBIT       =      0    0 simple, 1 ext, 2 COOP (PROOUT), +10 PAW based schemes


 Dipole corrections
   LMONO  =      F    monopole corrections only (constant potential shift)
   LDIPOL =      F    correct potential (dipole corrections)
   IDIPOL =      0    1-x, 2-y, 3-z, 4-all directions 
   EPSILON=  1.0000000 bulk dielectric constant

 Exchange correlation treatment:
   GGA     =    --    GGA type
   LEXCH   =     8    internal setting for exchange type
   LIBXC   =     F    Libxc                    
   VOSKOWN =     0    Vosko Wilk Nusair interpolation
   EXXOEP  =     0    0=HF, 1=EXX-LHF (local Hartree Fock) 2=EXX OEP
   LHFCALC =     T    Hartree Fock is set to
   LSYMGRAD=     F    symmetrize gradient (conserves proper symmetry)
   PRECFOCK=normal    Normal, Fast or Accurate (Low or Medium for compatibility)
   LRHFCALC=     F    long range Hartree Fock
   LRSCOR  =     F    long range correlation only (use DFT for short range part)
   LTHOMAS =     F    Thomas Fermi screening in HF
   LMODELHF=     F    short range full HF, long range fraction AEXX
   LFOCKACE=     T    use Adeptively-Compressed-Exchange operator
   ENCUT4O =  -1.0   cutoff for four orbital integrals eV
   LMAXFOCK=     4    L truncation for augmentation on plane wave grid
   LMAXFOCKAE=  -1    L truncation for all-electron charge restoration on plane wave grid
   NMAXFOCKAE=   1    number of basis functions for all-electron charge restoration
   LFOCKAEDFT=     F  apply the AE augmentation even for DFT
   NKREDX  =     1    reduce k-point grid by
   NKREDY  =     1    reduce k-point grid by
   NKREDZ  =     1    reduce k-point grid by
   SHIFTRED=     F    shift reduced grid of Gamma
   HFKIDENT=     F    idential grid for each k-point
   ODDONLY =     F    use only odd q-grid points
   EVENONLY=     F    use only even q-grid points
   HFALPHA =   -1.0000 decay constant for conv. correction
   MCALPHA =    0.0000 extent of test-charge in conv. correction in multipole expansion
   AEXX    =    1.0000 exact exchange contribution
   HFSCREEN=    0.0000 screening length (either q_TF or 0.3 A-1)
   HFSCREENC=   0.0000 screening length for correlation (either q_TF or 0.3 A-1)
   HFRCUT  =    0.0000 spherical cutoff for potential kernel
   HFRCUTSOFT=    0.0000 smooth spherical cutoff for potential kernel
   ERFCRAY_SCREEN=    0.0000 screening factor for erfc+rayleigh like screening for potential kernel
   RAYLEXP=    0.0000  rayleigh exponent in erfc+rayleigh like screening
   ALDAX   =    0.0000 LDA exchange part
   AGGAX   =    0.0000 GGA exchange part
   ALDAC   =    0.0000 LDA correlation
   AGGAC   =    0.0000 GGA correlation
   ENCUTFOCK=  -1.0 apply spherical cutoff to Coloumb kernel
   NBANDSGWLOW=     1    first orbital included in HF term
   NBLOCK_FOCK=    64    blocking factor in FOCK_ACC

 Linear response parameters
   LEPSILON=     F    determine dielectric tensor
   LRPA    =     F    only Hartree local field effects (RPA)
   LNABLA  =     F    use nabla operator in PAW spheres
   LVEL    =     F    velocity operator in full k-point grid
   CSHIFT  =0.1000    complex shift for real part using Kramers Kronig
   OMEGAMAX=  -1.0    maximum frequency
   DEG_THRESHOLD= 0.2000000E-02 threshold for treating states as degnerate
   RTIME   =   -0.100 relaxation time in fs
  (WPLASMAI=    0.000 imaginary part of plasma frequency in eV, 0.658/RTIME)
   DFIELD  = 0.0000000 0.0000000 0.0000000 field for delta impulse in time

  Optional k-point grid parameters
   LKPOINTS_OPT  =     F    use optional k-point grid
   KPOINTS_OPT_MODE=     1    mode for optional k-point grid

 Orbital magnetization related:
   ORBITALMAG=     F  switch on orbital magnetization
   LCHIMAG   =     F  perturbation theory with respect to B field
   DQ        =  0.001000  dq finite difference perturbation B field
   LLRAUG    =     F  two centre corrections for induced B field



--------------------------------------------------------------------------------------------------------


 Static calculation
 charge density and potential will be updated during run
 non-spin polarized calculation
 Conjugate gradient for all bands (Freysoldt, et al. PRB 79, 241103 (2009))
 preconditioned conjugated gradient                                        
 perform sub-space diagonalisation
    before iterative eigenvector-optimisation
 modified Broyden-mixing scheme, WC =      100.0
 initial mixing is a Kerker type mixing with AMIX =  0.4000 and BMIX =      1.0000
 Hartree-type preconditioning will be used
 using additional bands            7
 real space projection scheme for non local part
 use partial core corrections
 no Harris-corrections to forces 
 use gradient corrections 
 use of overlap-Matrix (Vanderbilt PP)
 Methfessel and Paxton  Order N= 1 SIGMA  =   0.00


--------------------------------------------------------------------------------------------------------


  energy-cutoff  :      500.00
  volume of cell :      256.06
      direct lattice vectors                 reciprocal lattice vectors
     6.350124000  0.000000000  0.000000000     0.157477240  0.000000000  0.000000000
     0.000000000  6.350124000  0.000000000     0.000000000  0.157477240  0.000000000
     0.000000000  0.000000000  6.350124000     0.000000000  0.000000000  0.157477240

  length of vectors
     6.350124000  6.350124000  6.350124000     0.157477240  0.157477240  0.157477240



 old parameters found on file WAVECAR:
  energy-cutoff  :      500.00
  volume of cell :      256.06
      direct lattice vectors                 reciprocal lattice vectors
     6.350124000  0.000000000  0.000000000     0.157477240  0.000000000  0.000000000
     0.000000000  6.350124000  0.000000000     0.000000000  0.157477240  0.000000000
     0.000000000  0.000000000  6.350124000     0.000000000  0.000000000  0.157477240

  length of vectors


 k-points in units of 2pi/SCALE and weight: Automatically generated mesh            
   0.00000000  0.00000000  0.00000000       1.000

 k-points in reciprocal lattice and weights: Automatically generated mesh            
   0.00000000  0.00000000  0.00000000       1.000

 position of ions in fractional coordinates (direct lattice) 
   0.00000000  0.00000000  0.00000000
   0.00000000  0.00000000  0.25528042

 position of ions in cartesian coordinates  (Angst):
   0.00000000  0.00000000  0.00000000
   0.00000000  0.00000000  1.62106230



--------------------------------------------------------------------------------------------------------


 use serial FFT for orbitals x direction half grid
 k-point   1 :   0.0000 0.0000 0.0000  plane waves:    3310

 maximum and minimum number of plane-waves per node :      3310     3310

 maximum number of plane-waves:      3310
 maximum index in each direction: 
   IXMAX=   11   IYMAX=   11   IZMAX=   11
   IXMIN=    0   IYMIN=  -11   IZMIN=  -11


 serial   3D FFT for wavefunctions
 parallel 3D FFT for charge:
    minimum data exchange during FFTs selected (reduces bandwidth)


 FFT grid for exact exchange (Hartree Fock) 
  NGX = 36; NGY = 36; NGZ = 36

 use serial FFT for orbitals x direction half grid

 Radii for the augmentation spheres in the non-local exchange
 for species   1 augmentation radius   1.299 (default was   1.039)
       energy cutoff for augmentation   2000.0
 for species   2 augmentation radius   0.735 (default was   0.588)
       energy cutoff for augmentation   2000.0
 Maximum index for augmentation-charges in exchange         1743
  SETUP_FOCK is finished

 total amount of memory used by VASP MPI-rank0    55809. kBytes
=======================================================================

   base      :      30000. kBytes
   nonlr-proj:        356. kBytes
   fftplans  :       8029. kBytes
   grid      :      17031. kBytes
   one-center:          8. kBytes
   HF        :         67. kBytes
   wavefun   :        318. kBytes

     INWAV:  cpu time      0.0010: real time      0.0010
 Broyden mixing: mesh for mixing (old mesh)
   NGX = 23   NGY = 23   NGZ = 23
  (NGX  = 96   NGY  = 96   NGZ  = 96)
  gives a total of  12167 points

 charge density for first step will be calculated from the start-wavefunctions


--------------------------------------------------------------------------------------------------------


 Maximum index for non-local projection operator         2553
 Maximum index for augmentation-charges         4031 (set IRDMAX)


--------------------------------------------------------------------------------------------------------


 initial charge from wavefunction
    FEWALD:  cpu time      0.0001: real time      0.0001


--------------------------------------- Iteration      1(   1)  ---------------------------------------


    POTLOK:  cpu time      0.1082: real time      0.1082
    SETDIJ:  cpu time      0.0025: real time      0.0025
    TRIAL :  cpu time      0.0392: real time      0.0392
    CORREC:  cpu time      0.1443: real time      0.1444
    CHARGE:  cpu time      0.0106: real time      0.0106
    --------------------------------------------
      LOOP:  cpu time      0.3056: real time      0.3063

 eigenvalue-minimisations  :     0
 total energy-change (2. order) :-0.7857614E+01  (-0.2979207E-01)
 number of electron       2.0000000 magnetization 
 augmentation part        0.0156207 magnetization 

 Free energy of the ion-electron system (eV)
  ---------------------------------------------------
  alpha Z        PSCENC =         0.00733841
  Ewald energy   TEWEN  =        -3.64506418
  -Hartree energ DENC   =       -12.79268089
  -exchange      EXHF   =        12.83155212
  -V(xc)+E(xc)   XCENC  =         0.00000000
  PAW double counting   =        15.16775286      -15.18235899
  entropy T*S    EENTRO =         0.00000000
  eigenvalues    EBANDS =       -17.49324710
  atomic energy  EATOM  =        13.24909392
  ---------------------------------------------------
  free energy    TOTEN  =        -7.85761385 eV

  energy without entropy =       -7.85761385  energy(sigma->0) =       -7.85761385
  exchange ACFDT corr.  =         0.00000000  see jH, gK, PRB 81, 115126


--------------------------------------------------------------------------------------------------------




--------------------------------------- Iteration      1(   2)  ---------------------------------------


    POTLOK:  cpu time      0.1075: real time      0.1076
    SETDIJ:  cpu time      0.0024: real time      0.0024
    TRIAL :  cpu time      0.0380: real time      0.0381
    CORREC:  cpu time      0.1457: real time      0.1457
    CHARGE:  cpu time      0.0105: real time      0.0105
    --------------------------------------------
      LOOP:  cpu time      0.3044: real time      0.3045

 eigenvalue-minimisations  :     0
 total energy-change (2. order) :-0.3002640E-01  (-0.6672946E-02)
 number of electron       2.0000000 magnetization 
 augmentation part        0.0155199 magnetization 

 Free energy of the ion-electron system (eV)
  ---------------------------------------------------
  alpha Z        PSCENC =         0.00733841
  Ewald energy   TEWEN  =        -3.64506418
  -Hartree energ DENC   =       -12.50985635
  -exchange      EXHF   =        12.69001953
  -V(xc)+E(xc)   XCENC  =         0.00000000
  PAW double counting   =        15.85791895      -15.87100212
  entropy T*S    EENTRO =         0.00000000
  eigenvalues    EBANDS =       -17.66608842
  atomic energy  EATOM  =        13.24909392
  ---------------------------------------------------
  free energy    TOTEN  =        -7.88764025 eV

  energy without entropy =       -7.88764025  energy(sigma->0) =       -7.88764025
  exchange ACFDT corr.  =         0.00000000  see jH, gK, PRB 81, 115126


--------------------------------------------------------------------------------------------------------




--------------------------------------- Iteration      1(   3)  ---------------------------------------


    POTLOK:  cpu time      0.1079: real time      0.1079
    SETDIJ:  cpu time      0.0024: real time      0.0024
    TRIAL :  cpu time      0.0380: real time      0.0381
    CORREC:  cpu time      0.1455: real time      0.1456
    CHARGE:  cpu time      0.0106: real time      0.0106
    --------------------------------------------
      LOOP:  cpu time      0.3046: real time      0.3048

 eigenvalue-minimisations  :     0
 total energy-change (2. order) :-0.6832670E-02  (-0.1170700E-02)
 number of electron       2.0000000 magnetization 
 augmentation part        0.0157262 magnetization 

 Free energy of the ion-electron system (eV)
  ---------------------------------------------------
  alpha Z        PSCENC =         0.00733841
  Ewald energy   TEWEN  =        -3.64506418
  -Hartree energ DENC   =       -12.43752004
  -exchange      EXHF   =        12.65379670
  -V(xc)+E(xc)   XCENC  =         0.00000000
  PAW double counting   =        16.38739057      -16.40024614
  entropy T*S    EENTRO =         0.00000000
  eigenvalues    EBANDS =       -17.70926216
  atomic energy  EATOM  =        13.24909392
  ---------------------------------------------------
  free energy    TOTEN  =        -7.89447292 eV

  energy without entropy =       -7.89447292  energy(sigma->0) =       -7.89447292
  exchange ACFDT corr.  =         0.00000000  see jH, gK, PRB 81, 115126


--------------------------------------------------------------------------------------------------------




--------------------------------------- Iteration      1(   4)  ---------------------------------------


    POTLOK:  cpu time      0.1074: real time      0.1080
    SETDIJ:  cpu time      0.0024: real time      0.0024
    TRIAL :  cpu time      0.0380: real time      0.0381
    CORREC:  cpu time      0.1451: real time      0.1453
    CHARGE:  cpu time      0.0107: real time      0.0107
    --------------------------------------------
      LOOP:  cpu time      0.3038: real time      0.3046

 eigenvalue-minimisations  :     0
 total energy-change (2. order) :-0.1234587E-02  (-0.5342046E-03)
 number of electron       2.0000000 magnetization 
 augmentation part        0.0157080 magnetization 

 Free energy of the ion-electron system (eV)
  ---------------------------------------------------
  alpha Z        PSCENC =         0.00733841
  Ewald energy   TEWEN  =        -3.64506418
  -Hartree energ DENC   =       -12.47981145
  -exchange      EXHF   =        12.67494456
  -V(xc)+E(xc)   XCENC  =         0.00000000
  PAW double counting   =        16.62847251      -16.64132079
  entropy T*S    EENTRO =         0.00000000
  eigenvalues    EBANDS =       -17.68936049
  atomic energy  EATOM  =        13.24909392
  ---------------------------------------------------
  free energy    TOTEN  =        -7.89570751 eV

  energy without entropy =       -7.89570751  energy(sigma->0) =       -7.89570751
  exchange ACFDT corr.  =         0.00000000  see jH, gK, PRB 81, 115126


--------------------------------------------------------------------------------------------------------




--------------------------------------- Iteration      1(   5)  ---------------------------------------


    POTLOK:  cpu time      0.1075: real time      0.1076
    SETDIJ:  cpu time      0.0025: real time      0.0025
    TRIAL :  cpu time      0.0381: real time      0.0382
    CORREC:  cpu time      0.1444: real time      0.1451
    CHARGE:  cpu time      0.0106: real time      0.0106
    --------------------------------------------
      LOOP:  cpu time      0.3032: real time      0.3041

 eigenvalue-minimisations  :     0
 total energy-change (2. order) :-0.5766751E-03  (-0.2541890E-03)
 number of electron       2.0000000 magnetization 
 augmentation part        0.0157029 magnetization 

 Free energy of the ion-electron system (eV)
  ---------------------------------------------------
  alpha Z        PSCENC =         0.00733841
  Ewald energy   TEWEN  =        -3.64506418
  -Hartree energ DENC   =       -12.48160736
  -exchange      EXHF   =        12.67584921
  -V(xc)+E(xc)   XCENC  =         0.00000000
  PAW double counting   =        16.47858325      -16.49148177
  entropy T*S    EENTRO =         0.00000000
  eigenvalues    EBANDS =       -17.68899567
  atomic energy  EATOM  =        13.24909392
  ---------------------------------------------------
  free energy    TOTEN  =        -7.89628419 eV

  energy without entropy =       -7.89628419  energy(sigma->0) =       -7.89628419
  exchange ACFDT corr.  =         0.00000000  see jH, gK, PRB 81, 115126


--------------------------------------------------------------------------------------------------------




--------------------------------------- Iteration      1(   6)  ---------------------------------------


    POTLOK:  cpu time      0.1077: real time      0.1079
    SETDIJ:  cpu time      0.0024: real time      0.0024
    TRIAL :  cpu time      0.0381: real time      0.0381
    CORREC:  cpu time      0.1449: real time      0.1451
    CHARGE:  cpu time      0.0107: real time      0.0107
    --------------------------------------------
      LOOP:  cpu time      0.3040: real time      0.3044

 eigenvalue-minimisations  :     0
 total energy-change (2. order) :-0.2578426E-03  (-0.6558554E-04)
 number of electron       2.0000000 magnetization 
 augmentation part        0.0156554 magnetization 

 Free energy of the ion-electron system (eV)
  ---------------------------------------------------
  alpha Z        PSCENC =         0.00733841
  Ewald energy   TEWEN  =        -3.64506418
  -Hartree energ DENC   =       -12.48513637
  -exchange      EXHF   =        12.67761560
  -V(xc)+E(xc)   XCENC  =         0.00000000
  PAW double counting   =        16.37238912      -16.38524610
  entropy T*S    EENTRO =         0.00000000
  eigenvalues    EBANDS =       -17.68753242
  atomic energy  EATOM  =        13.24909392
  ---------------------------------------------------
  free energy    TOTEN  =        -7.89654203 eV

  energy without entropy =       -7.89654203  energy(sigma->0) =       -7.89654203
  exchange ACFDT corr.  =         0.00000000  see jH, gK, PRB 81, 115126


--------------------------------------------------------------------------------------------------------




--------------------------------------- Iteration      1(   7)  ---------------------------------------


    POTLOK:  cpu time      0.1075: real time      0.1076
    SETDIJ:  cpu time      0.0025: real time      0.0025
    TRIAL :  cpu time      0.0381: real time      0.0381
    CORREC:  cpu time      0.1450: real time      0.1451
    CHARGE:  cpu time      0.0105: real time      0.0105
    --------------------------------------------
      LOOP:  cpu time      0.3037: real time      0.3040

 eigenvalue-minimisations  :     0
 total energy-change (2. order) :-0.6448808E-04  (-0.1621183E-04)
 number of electron       2.0000000 magnetization 
 augmentation part        0.0156641 magnetization 

 Free energy of the ion-electron system (eV)
  ---------------------------------------------------
  alpha Z        PSCENC =         0.00733841
  Ewald energy   TEWEN  =        -3.64506418
  -Hartree energ DENC   =       -12.48758777
  -exchange      EXHF   =        12.67884043
  -V(xc)+E(xc)   XCENC  =         0.00000000
  PAW double counting   =        16.36000347      -16.37286675
  entropy T*S    EENTRO =         0.00000000
  eigenvalues    EBANDS =       -17.68636405
  atomic energy  EATOM  =        13.24909392
  ---------------------------------------------------
  free energy    TOTEN  =        -7.89660652 eV

  energy without entropy =       -7.89660652  energy(sigma->0) =       -7.89660652
  exchange ACFDT corr.  =         0.00000000  see jH, gK, PRB 81, 115126


--------------------------------------------------------------------------------------------------------




--------------------------------------- Iteration      1(   8)  ---------------------------------------


    POTLOK:  cpu time      0.1076: real time      0.1079
    SETDIJ:  cpu time      0.0025: real time      0.0025
    TRIAL :  cpu time      0.0380: real time      0.0380
    CORREC:  cpu time      0.1433: real time      0.1449
    CHARGE:  cpu time      0.0105: real time      0.0106
    --------------------------------------------
      LOOP:  cpu time      0.3020: real time      0.3040

 eigenvalue-minimisations  :     0
 total energy-change (2. order) :-0.1606336E-04  (-0.3028349E-05)
 number of electron       2.0000000 magnetization 
 augmentation part        0.0156618 magnetization 

 Free energy of the ion-electron system (eV)
  ---------------------------------------------------
  alpha Z        PSCENC =         0.00733841
  Ewald energy   TEWEN  =        -3.64506418
  -Hartree energ DENC   =       -12.48848941
  -exchange      EXHF   =        12.67928976
  -V(xc)+E(xc)   XCENC  =         0.00000000
  PAW double counting   =        16.38455838      -16.39739539
  entropy T*S    EENTRO =         0.00000000
  eigenvalues    EBANDS =       -17.68595408
  atomic energy  EATOM  =        13.24909392
  ---------------------------------------------------
  free energy    TOTEN  =        -7.89662258 eV

  energy without entropy =       -7.89662258  energy(sigma->0) =       -7.89662258
  exchange ACFDT corr.  =         0.00000000  see jH, gK, PRB 81, 115126


--------------------------------------------------------------------------------------------------------




--------------------------------------- Iteration      1(   9)  ---------------------------------------


    POTLOK:  cpu time      0.1079: real time      0.1079
    SETDIJ:  cpu time      0.0025: real time      0.0025
    TRIAL :  cpu time      0.0381: real time      0.0382
    CORREC:  cpu time      0.1452: real time      0.1453
    CHARGE:  cpu time      0.0106: real time      0.0106
    --------------------------------------------
      LOOP:  cpu time      0.3044: real time      0.3046

 eigenvalue-minimisations  :     0
 total energy-change (2. order) :-0.2999438E-05  (-0.1200562E-05)
 number of electron       2.0000000 magnetization 
 augmentation part        0.0156684 magnetization 

 Free energy of the ion-electron system (eV)
  ---------------------------------------------------
  alpha Z        PSCENC =         0.00733841
  Ewald energy   TEWEN  =        -3.64506418
  -Hartree energ DENC   =       -12.49080577
  -exchange      EXHF   =        12.68044759
  -V(xc)+E(xc)   XCENC  =         0.00000000
  PAW double counting   =        16.39363324      -16.40646953
  entropy T*S    EENTRO =         0.00000000
  eigenvalues    EBANDS =       -17.68479926
  atomic energy  EATOM  =        13.24909392
  ---------------------------------------------------
  free energy    TOTEN  =        -7.89662558 eV

  energy without entropy =       -7.89662558  energy(sigma->0) =       -7.89662558
  exchange ACFDT corr.  =         0.00000000  see jH, gK, PRB 81, 115126


--------------------------------------------------------------------------------------------------------




--------------------------------------- Iteration      1(  10)  ---------------------------------------


    POTLOK:  cpu time      0.1077: real time      0.1078
    SETDIJ:  cpu time      0.0024: real time      0.0024
    TRIAL :  cpu time      0.0382: real time      0.0382
    CORREC:  cpu time      0.1454: real time      0.1454
    CHARGE:  cpu time      0.0106: real time      0.0106
    --------------------------------------------
      LOOP:  cpu time      0.3044: real time      0.3047

 eigenvalue-minimisations  :     0
 total energy-change (2. order) :-0.1192486E-05  (-0.3904488E-06)
 number of electron       2.0000000 magnetization 
 augmentation part        0.0156685 magnetization 

 Free energy of the ion-electron system (eV)
  ---------------------------------------------------
  alpha Z        PSCENC =         0.00733841
  Ewald energy   TEWEN  =        -3.64506418
  -Hartree energ DENC   =       -12.49279343
  -exchange      EXHF   =        12.68144159
  -V(xc)+E(xc)   XCENC  =         0.00000000
  PAW double counting   =        16.39527266      -16.40810780
  entropy T*S    EENTRO =         0.00000000
  eigenvalues    EBANDS =       -17.68380794
  atomic energy  EATOM  =        13.24909392
  ---------------------------------------------------
  free energy    TOTEN  =        -7.89662677 eV

  energy without entropy =       -7.89662677  energy(sigma->0) =       -7.89662677
  exchange ACFDT corr.  =         0.00000000  see jH, gK, PRB 81, 115126


--------------------------------------------------------------------------------------------------------




--------------------------------------- Iteration      1(  11)  ---------------------------------------


    POTLOK:  cpu time      0.1073: real time      0.1075
    SETDIJ:  cpu time      0.0024: real time      0.0024
    TRIAL :  cpu time      0.0379: real time      0.0380
    CORREC:  cpu time      0.1437: real time      0.1453
    EDDIAG:  cpu time      0.0302: real time      0.0302
    CHARGE:  cpu time      0.0101: real time      0.0102
    --------------------------------------------
      LOOP:  cpu time      0.3318: real time      0.3338

 eigenvalue-minimisations  :     0
 total energy-change (2. order) :-0.3902786E-06  (-0.1020972E-06)
 number of electron       2.0000000 magnetization 
 augmentation part        0.0156698 magnetization 

 Free energy of the ion-electron system (eV)
  ---------------------------------------------------
  alpha Z        PSCENC =         0.00733841
  Ewald energy   TEWEN  =        -3.64506418
  -Hartree energ DENC   =       -12.49431606
  -exchange      EXHF   =        12.68253128
  -V(xc)+E(xc)   XCENC  =         0.00000000
  PAW double counting   =        16.39296914      -16.40580827
  entropy T*S    EENTRO =         0.00000000
  eigenvalues    EBANDS =       -17.68304334
  atomic energy  EATOM  =        13.24909392
  ---------------------------------------------------
  free energy    TOTEN  =        -7.89662716 eV

  energy without entropy =       -7.89662716  energy(sigma->0) =       -7.89662716
  exchange ACFDT corr.  =         0.00000000  see jH, gK, PRB 81, 115126


--------------------------------------------------------------------------------------------------------


  average scaling for gradient   0.8024


 average (electrostatic) potential at core
  the test charge radii are     1.0393  0.5883
  (the norm of the test charge is              1.0000)
       1 -25.6778       2 -18.5424



 E-fermi :  -8.7746     XC(G=0):   0.0000     alpha+bet : -0.6982

 Fermi energy:        -8.7746009641

 k-point     1 :       0.0000    0.0000    0.0000
  band No.  band energies     occupation 
      1      -8.8415      2.00000
      2       0.5731      0.00000
      3       3.1929      0.00000
      4       3.1929      0.00000
      5       3.3063      0.00000
      6       3.8271      0.00000
      7       3.8672      0.00000
      8       5.4617      0.00000


--------------------------------------------------------------------------------------------------------


 soft charge-density along one line, spin component           1
         0         1         2         3         4         5         6         7         8         9
 total charge-density along one line

 pseudopotential strength for first ion, spin component:           1
  1.195  -6.313  -0.000  -0.026  -0.000
 -6.313  36.602   0.000   0.075   0.000
 -0.000   0.000  -0.495   0.000   0.000
 -0.026   0.075   0.000  -0.490   0.000
 -0.000   0.000   0.000   0.000  -0.495
 total augmentation occupancy for first ion, spin component:           1
  1.089   0.032   0.000   0.437   0.000
  0.032   0.001   0.000   0.013   0.000
  0.000   0.000   0.000   0.000   0.000
  0.437   0.013   0.000   0.176   0.000
  0.000   0.000   0.000   0.000   0.000


------------------------ aborting loop because EDIFF is reached ----------------------------------------


    FORLOC:  cpu time      0.0052: real time      0.0052
    FORHF :  cpu time      0.0122: real time      0.0122
    FORNL :  cpu time      0.0095: real time      0.0095
    FORCOR:  cpu time      0.0999: real time      0.1004
    OFIELD:  cpu time      0.0007: real time      0.0007

 VOLUME and BASIS-vectors are now :
 -----------------------------------------------------------------------------
  energy-cutoff  :      500.00
  volume of cell :      256.06
      direct lattice vectors                 reciprocal lattice vectors
     6.350124000  0.000000000  0.000000000     0.157477240  0.000000000  0.000000000
     0.000000000  6.350124000  0.000000000     0.000000000  0.157477240  0.000000000
     0.000000000  0.000000000  6.350124000     0.000000000  0.000000000  0.157477240

  length of vectors
     6.350124000  6.350124000  6.350124000     0.157477240  0.157477240  0.157477240


 FORCES acting on ions:
    Electron-Ion                     Ewald-Force                    Non-Local-Force
 -----------------------------------------------------------------------------------------------
   0.368E-09 0.355E-09 0.844E+01   0.638E-17 -.380E-18 -.502E+01   -.319E-09 -.287E-09 -.374E+01
   0.112E-08 0.112E-08 -.378E+01   -.273E-17 0.483E-18 0.502E+01   0.596E-10 0.531E-10 -.786E+00
 -----------------------------------------------------------------------------------------------
   0.148E-08 0.147E-08 0.466E+01   0.365E-17 0.103E-18 0.000E+00   -.260E-09 -.234E-09 -.453E+01


 POSITION                                       TOTAL-FORCE (eV/Angst)
 -----------------------------------------------------------------------------------
      0.00000      0.00000      0.00000        -0.000000     -0.000000     -0.396983
      0.00000      0.00000      1.62106         0.000000      0.000000      0.396983
 -----------------------------------------------------------------------------------
    total drift:                                0.000000      0.000000      0.036158


--------------------------------------------------------------------------------------------------------



  FREE ENERGIE OF THE ION-ELECTRON SYSTEM (eV)
  ---------------------------------------------------
  free  energy   TOTEN  =        -7.89662716 eV

  energy  without entropy=       -7.89662716  energy(sigma->0) =       -7.89662716



--------------------------------------------------------------------------------------------------------


    POTLOK:  cpu time      0.1091: real time      0.1091


--------------------------------------------------------------------------------------------------------


 writing wavefunctions
     LOOP+:  cpu time      4.1246: real time      4.2425
    4ORBIT:  cpu time      0.0000: real time      0.0000

 total amount of memory used by VASP MPI-rank0    68603. kBytes
=======================================================================

   base      :      30000. kBytes
   nonlr-proj:        356. kBytes
   fftplans  :       8029. kBytes
   grid      :      17031. kBytes
   one-center:          8. kBytes
   HF        :         67. kBytes
   wavefun   :        318. kBytes
   fock_wrk  :      12794. kBytes

  
  
 General timing and accounting informations for this job:
 ========================================================
  
                  Total CPU time used (sec):        5.665
                            User time (sec):        5.405
                          System time (sec):        0.260
                         Elapsed time (sec):        6.239
  
                   Maximum memory used (kb):       80744.
                   Average memory used (kb):          N/A
  
                          Minor page faults:       102051
                          Major page faults:            0
                 Voluntary context switches:         1274
 
 PROFILE, used timers:     366
 =============================
 
 index                 routine                    time                            calls level
----------------------------------------------------------------------------------------------
    1    total_time                            6.239960                                1   1
    2      crpa_reader                           0.000023                              1   2
    3      m_bcast_d                             0.000019                              4   2
    4      rspher_all                            0.000589                              3   2
    5      fock_set_fsg                          0.000299                              1   2
    6        fewald                                0.000298                            1   3
    7          rsp                                   0.000019                          1   4
    8          rcp                                   0.000004                          1   4
    9      m_bcast_z                             0.000309                              9   2
   10      brgrid                                0.000235                              1   2
   11      stufak                                0.001740                              1   2
   12      fft3d_mpi                             0.010760                              3   2
   13        fftbrc_mpi                            0.010341                            3   3
   14          fftbas_plan_mpi                       0.010341                          3   4
   15            dfftw_execute                         0.005230                        9   5
   16            map_forward                           0.004854                        6   5
   17              map_gather                            0.001153                      3   6
   18              m_alltoallv_z                         0.001756                      3   6
   19              map_scatter                           0.001935                      3   6
   20      densta                                0.000093                              2   2
   21        m_sumb_d                              0.000079                           12   3
   22      setdij_                               0.000883                              2   2
   23        m_sumb_d                              0.000074                            2   3
   24      vectorpot                             0.000000                              1   2
   25      proall                                0.002566                              1   2
   26        phaser                                0.000000                            1   3
   27        rpro_isp                              0.002564                            1   3
   28          fftwav_mpi                            0.002470                          2   4
   29            fftwav                                0.002469                        2   5
   30              fft3d                                 0.002101                      2   6
   31          rpromu                                0.000075                          1   4
   32            rpromu_gemm                           0.000043                        2   5
   33      orthch                                0.000172                              1   2
   34        overl                                 0.000001                            1   3
   35        redis_proj                            0.000029                            3   3
   36          m_alltoall_d                          0.000027                          6   4
   37        redis_pw                              0.000081                            2   3
   38          m_alltoall_d                          0.000070                          4   4
   39        orth1                                 0.000019                            1   3
   40        m_sumb_d                              0.000005                            1   3
   41        choleski                              0.000008                            1   3
   42        lincom                                0.000020                            1   3
   43      redis_pw_over_bands                   0.000000                              1   2
   44      set_charge                            0.010408                              1   2
   45        soft_charge                           0.002948                            1   3
   46          fftwav_mpi                            0.000983                          1   4
   47            fftwav                                0.000983                        1   5
   48              fft3d                                 0.000918                      1   6
   49          pw_charge                             0.000141                          1   4
   50          m_sumb_d                              0.000509                          1   4
   51          fft_gq                                0.001108                          1   4
   52            fft3d_mpi                             0.001051                        1   5
   53              fftbrc_mpi                            0.000781                      1   6
   54                fftbas_plan_mpi                       0.000781                    1   7
   55                  dfftw_execute                         0.000391                  3   8
   56                  map_backward                          0.000331                  2   8
   57                    map_gather                            0.000108                2   9
   58                    m_alltoallv_z                         0.000180                2   9
   59                    map_scatter                           0.000041                2   9
   60        depsum                                0.000008                            1   3
   61          m_sumb_d                              0.000007                          1   4
   62        augmentation_charge                   0.006962                            1   3
   63          fft3d_mpi                             0.004764                          1   4
   64            fftbrc_mpi                            0.004525                        1   5
   65              fftbas_plan_mpi                       0.004524                      1   6
   66                dfftw_execute                         0.001713                    3   7
   67                map_backward                          0.002716                    2   7
   68                  map_gather                            0.000450                  1   8
   69                  m_alltoallv_z                         0.000934                  1   8
   70                  map_scatter                           0.001327                  1   8
   71      fewald                                0.000062                              1   2
   72        rsp                                   0.000037                            1   3
   73        rcp                                   0.000006                            1   3
   74        m_sumb_d                              0.000017                            5   3
   75      elmin_all                             3.380426                              1   2
   76        potlok                                2.362398                           22   3
   77          fft3d_mpi                             1.189262                        286   4
   78            fftbrc_mpi                            1.127419                      286   5
   79              fftbas_plan_mpi                       1.127317                    286   6
   80                dfftw_execute                         0.472640                  858   7
   81                map_forward                           0.294916                  308   7
   82                  map_gather                            0.128580                176   8
   83                  m_alltoallv_z                         0.079491                176   8
   84                  map_scatter                           0.086143                176   8
   85                map_backward                          0.339965                  264   7
   86                  map_gather                            0.089963                132   8
   87                  m_alltoallv_z                         0.084179                132   8
   88                  map_scatter                           0.165153                132   8
   89          ggaall_grid                           0.492251                         22   4
   90          m_sumb_d                              0.002265                        110   4
   91          pothar                                0.027953                         22   4
   92            m_sumb_d                              0.000561                       22   5
   93          m_bcast_d                             0.007874                         22   4
   94        potlok_metagga                        0.000008                           22   3
   95        setdij_                               0.009821                           22   3
   96          m_sumb_d                              0.001289                         22   4
   97        set_dd_paw                            0.043933                           22   3
   98          m_sumb_d                              0.043775                        154   4
   99        edwav                                 0.425423                           22   3
  100          m_sumb_d                              0.000341                        110   4
  101          fock_all_dblbuf                       0.247102                         11   4
  102            phaser                                0.000001                       11   5
  103            fft_and_gather                        0.049776                       11   5
  104              w1_copy                               0.000304                     22   6
  105              fftwav_mpi                            0.013380                     22   6
  106                fftwav                                0.013369                   22   7
  107                  fft3d                                 0.011326                 22   8
  108              m_ibcast_z_from                       0.035541                     88   6
  109              m_ibcast_d_from                       0.000457                     88   6
  110            waitgth                               0.000023                       11   5
  111            fock_fwd                              0.118152                       11   5
  112              fock_set_gfac_vkpt                    0.001239                     11   6
  113                phaser_hf                             0.000000                   11   7
  114              w1_copy                               0.000124                     11   6
  115              fftwav_mpi                            0.005646                     11   6
  116                fftwav                                0.005641                   11   7
  117                  fft3d                                 0.005090                 11   8
  118              fock_charge_mu                        0.008092                     11   6
  119                racc0mu_hf                            0.000830                   11   7
  120              fft3d_mpi                             0.072882                    176   6
  121                fft3d                                 0.072814                  176   7
  122              apply_gfac_exchange                   0.003376                     88   6
  123              vhamil_trace                          0.007387                     88   6
  124              rpromu_hf                             0.000549                     11   6
  125              calc_dllmm_trans                      0.000113                     88   6
  126              overl_fock                            0.000017                     88   6
  127            reduce                                0.025085                       11   5
  128              m_ireduce_z_to                        0.024947                     88   6
  129              m_ireduce_d_to                        0.000085                     88   6
  130            waitred                               0.000024                       11   5
  131            fock_bck                              0.044739                       11   5
  132              overl1                                0.000025                     22   6
  133              racc0                                 0.001186                     22   6
  134              fftext_mpi                            0.036054                     44   6
  135                fft3d_mpi                             0.035552                   44   7
  136                  fft3d                                 0.035525                 44   8
  137            m_sumb_d                              0.000221                       22   5
  138          overl                                 0.000042                         44   4
  139          phaser                                0.000000                         11   4
  140          redis_proj                            0.001281                        242   4
  141            m_alltoall_d                          0.001188                      418   5
  142          redis_pw                              0.004072                        121   4
  143            m_alltoall_d                          0.003622                      154   5
  144          fftwav_mpi                            0.049021                         44   4
  145            fftwav                                0.049001                       44   5
  146              fft3d                                 0.043098                     44   6
  147          hamilt_local                          0.040474                         22   4
  148            vhamil                                0.015063                       22   5
  149            kinhamil                              0.025379                       22   5
  150              fftext_mpi                            0.025113                     22   6
  151                fft3d_mpi                             0.024842                   22   7
  152                  fft3d                                 0.024823                 22   8
  153          orth1                                 0.000466                         11   4
  154          racc0                                 0.001033                         22   4
  155          fftext_mpi                            0.023170                         22   4
  156            fft3d_mpi                             0.022967                       22   5
  157              fft3d                                 0.022950                     22   6
  158          rpro1                                 0.000488                         22   4
  159          eccp                                  0.025028                         66   4
  160          w1_dscal                              0.003480                         22   4
  161          pdssyex_zheevx                        0.003954                         22   4
  162            FERMAT_RAZOR                          0.000000                        1   5
  163          lincom                                0.001076                         44   4
  164          orthch                                0.001145                         22   4
  165            overl                                 0.000017                       22   5
  166            redis_proj                            0.000245                       66   5
  167              m_alltoall_d                          0.000215                    132   6
  168            orth1                                 0.000321                       22   5
  169            m_sumb_d                              0.000055                       22   5
  170            choleski                              0.000072                       22   5
  171            lincom                                0.000358                       22   5
  172          redis_pw_over_bands                   0.000712                         22   4
  173            redis_pw_all                          0.000702                       22   5
  174              redis_pw                              0.000694                     22   6
  175                m_alltoall_d                          0.000586                   44   7
  176        densta                                0.000357                           22   3
  177          m_sumb_d                              0.000257                        132   4
  178        set_charge                            0.234256                           22   3
  179          soft_charge                           0.071558                         22   4
  180            fftwav_mpi                            0.021660                       22   5
  181              fftwav                                0.021646                     22   6
  182                fft3d                                 0.019902                   22   7
  183            pw_charge                             0.003309                       22   5
  184            m_sumb_d                              0.011773                       22   5
  185            fft_gq                                0.024014                       22   5
  186              fft3d_mpi                             0.022730                     22   6
  187                fftbrc_mpi                            0.016891                   22   7
  188                  fftbas_plan_mpi                       0.016885                 22   8
  189                    dfftw_execute                         0.008347               66   9
  190                    map_backward                          0.007299               44   9
  191                      map_gather                            0.002440             44  10
  192                      m_alltoallv_z                         0.003893             44  10
  193                      map_scatter                           0.000897             44  10
  194          depsum                                0.000173                         22   4
  195            m_sumb_d                              0.000143                       22   5
  196          augmentation_charge                   0.151010                         22   4
  197            fft3d_mpi                             0.103629                       22   5
  198              fftbrc_mpi                            0.098658                     22   6
  199                fftbas_plan_mpi                       0.098650                   22   7
  200                  dfftw_execute                         0.037724                 66   8
  201                  map_backward                          0.058833                 44   8
  202                    map_gather                            0.010491               22   9
  203                    m_alltoallv_z                         0.019719               22   9
  204                    map_scatter                           0.028525               22   9
  205        eddiag                                0.299478                           12   3
  206          fock_all_dblbuf                       0.261002                         12   4
  207            phaser                                0.000001                       12   5
  208            fft_and_gather                        0.045452                       12   5
  209              w1_copy                               0.000591                     24   6
  210              fftwav_mpi                            0.014318                     24   6
  211                fftwav                                0.014309                   24   7
  212                  fft3d                                 0.012010                 24   8
  213              m_ibcast_z_from                       0.029987                     96   6
  214              m_ibcast_d_from                       0.000437                     96   6
  215            waitgth                               0.000024                       12   5
  216            fock_fwd                              0.127710                       12   5
  217              fock_set_gfac_vkpt                    0.001362                     12   6
  218                phaser_hf                             0.000002                   12   7
  219              w1_copy                               0.000135                     12   6
  220              fftwav_mpi                            0.006002                     12   6
  221                fftwav                                0.005997                   12   7
  222                  fft3d                                 0.005486                 12   8
  223              fock_charge_mu                        0.008109                     12   6
  224                racc0mu_hf                            0.000915                   12   7
  225              fft3d_mpi                             0.079225                    192   6
  226                fft3d                                 0.079160                  192   7
  227              apply_gfac_exchange                   0.003710                     96   6
  228              vhamil_trace                          0.007967                     96   6
  229              rpromu_hf                             0.000588                     12   6
  230              calc_dllmm_trans                      0.000123                     96   6
  231              overl_fock                            0.000018                     96   6
  232            reduce                                0.027893                       12   5
  233              m_ireduce_z_to                        0.027744                     96   6
  234              m_ireduce_d_to                        0.000091                     96   6
  235            waitred                               0.000026                       12   5
  236            fock_bck                              0.048750                       12   5
  237              overl1                                0.000024                     24   6
  238              racc0                                 0.001275                     24   6
  239              fftext_mpi                            0.039326                     48   6
  240                fft3d_mpi                             0.038764                   48   7
  241                  fft3d                                 0.038730                 48   8
  242            m_sumb_d                              0.000277                       24   5
  243          overl                                 0.000001                          1   4
  244          redis_proj                            0.000019                          3   4
  245            m_alltoall_d                          0.000019                        6   5
  246          fftwav_mpi                            0.027466                         24   4
  247            fftwav                                0.027452                       24   5
  248              fft3d                                 0.023953                     24   6
  249          hamilt_local                          0.003639                          2   4
  250            vhamil                                0.001340                        2   5
  251            kinhamil                              0.002295                        2   5
  252              fftext_mpi                            0.002262                      2   6
  253                fft3d_mpi                             0.002233                    2   7
  254                  fft3d                                 0.002229                  2   8
  255          redis_pw                              0.000121                          3   4
  256            m_alltoall_d                          0.000105                        6   5
  257          orth1                                 0.000022                          1   4
  258          eccp                                  0.006250                         22   4
  259          w1_dot                                0.000101                         22   4
  260          m_sumb_d                              0.000202                         13   4
  261          lincom                                0.000025                          1   4
  262          shift_bands_between_low_high          0.000000                          1   4
  263          pdssyex_zheevx                        0.000148                          1   4
  264        m_sumb_d                              0.000173                           25   3
  265      rotate_active_occupied_orbital        0.000000                              1   2
  266      force_and_stress                      0.128869                              1   2
  267        forloc                                0.005161                            1   3
  268          m_sumb_d                              0.000017                          1   4
  269        fock_force                            0.012232                            1   3
  270          wrk_allocate                          0.001034                          1   4
  271            fock_set_fsg                          0.000026                        1   5
  272              fewald                                0.000025                      1   6
  273                rsp                                   0.000020                    1   7
  274                rcp                                   0.000004                    1   7
  275            rspher_all                            0.000928                        3   5
  276          phaser                                0.000000                          1   4
  277          rproxyz                               0.008718                          1   4
  278            rspher_all                            0.001162                        4   5
  279            rpro_isp                              0.007551                        3   5
  280              fftwav_mpi                            0.007301                      6   6
  281                fftwav                                0.007300                    6   7
  282                  fft3d                                 0.006367                  6   8
  283              rpromu                                0.000222                      3   6
  284                rpromu_gemm                           0.000127                    6   7
  285          fft_and_gather                        0.000799                          1   4
  286            w1_copy                               0.000014                        1   5
  287            fftwav_mpi                            0.000474                        1   5
  288              fftwav                                0.000474                      1   6
  289                fft3d                                 0.000442                    1   7
  290            m_ibcast_z_from                       0.000301                        1   5
  291            m_ibcast_d_from                       0.000004                        4   5
  292          fock_set_gfac_vkpt                    0.000114                          1   4
  293            phaser_hf                             0.000000                        1   5
  294          w1_copy                               0.000011                          1   4
[...]
  298          fock_charge_mu                        0.000093                          1   4
  299            racc0mu_hf                            0.000027                        1   5
  300          fft3d_mpi                             0.000841                          2   4
  301            fft3d                                 0.000840                        2   5
  302          apply_gfac_weight                     0.000032                          1   4
  303          rpromu_hf                             0.000082                          4   4
  304          calc_dllmm_trans                      0.000010                          6   4
  305          eccp_nl_fock                          0.000001                          6   4
  306          contraction                           0.000001                          3   4
  307          m_sumb_d                              0.000007                          2   4
  308          wrk_deallocate                        0.000003                          1   4
  309        fornlr                                0.007879                            1   3
  310          rspher_all                            0.001031                          3   4
  311          phaser                                0.000000                          3   4
  312          rpro_isp                              0.006422                          3   4
  313            fftwav_mpi                            0.006251                        6   5
  314              fftwav                                0.006251                      6   6
  315                fft3d                                 0.005662                    6   7
  316            rpromu                                0.000156                        3   5
  317              rpromu_gemm                           0.000099                      6   6
  318          m_sumb_d                              0.000412                          1   4
  319        fordep                                0.001601                            1   3
  320          setdij_                               0.001598                          6   4
  321            m_sumb_d                              0.000053                        6   5
  322        setdij_                               0.000237                            1   3
  323          m_sumb_d                              0.000005                          1   4
  324        set_dd_magatom                        0.000001                            1   3
  325        set_dd_paw                            0.002014                            1   3
  326          m_sumb_d                              0.002004                          7   4
  327        fft3d_mpi                             0.048556                           11   3
  328          fftbrc_mpi                            0.046362                         11   4
  329            fftbas_plan_mpi                       0.046357                       11   5
  330              dfftw_execute                         0.019337                     33   6
  331              map_forward                           0.010777                     10   6
  332                map_gather                            0.004508                    5   7
  333                m_alltoallv_z                         0.003068                    5   7
  334                map_scatter                           0.003176                    5   7
  335              map_backward                          0.015416                     12   6
  336                map_gather                            0.004044                    6   7
  337                m_alltoallv_z                         0.003772                    6   7
  338                map_scatter                           0.007569                    6   7
  339        ggaall_grid                           0.022321                            1   3
  340        m_sumb_d                              0.000119                            5   3
  341        forhar                                0.003304                            1   3
  342          m_sumb_d                              0.000025                          1   4
  343        m_bcast_d                             0.000009                            2   3
  344      potlok                                0.106462                              1   2
  345        fft3d_mpi                             0.054022                           13   3
  346          fftbrc_mpi                            0.051162                         13   4
  347            fftbas_plan_mpi                       0.051159                       13   5
  348              dfftw_execute                         0.021322                     39   6
  349              map_forward                           0.013315                     14   6
  350                map_gather                            0.005961                    8   7
  351                m_alltoallv_z                         0.003497                    8   7
  352                map_scatter                           0.003831                    8   7
  353              map_backward                          0.015638                     12   6
  354                map_gather                            0.004256                    6   7
  355                m_alltoallv_z                         0.003976                    6   7
  356                map_scatter                           0.007380                    6   7
  357        ggaall_grid                           0.022330                            1   3
  358        m_sumb_d                              0.000016                            5   3
  359        pothar                                0.001243                            1   3
  360          m_sumb_d                              0.000023                          1   4
  361        m_bcast_d                             0.000347                            1   3
  362      potlok_metagga                        0.000000                              1   2
  363      set_dd_magatom                        0.000001                              1   2
  364      set_dd_paw                            0.002005                              1   2
  365        m_sumb_d                              0.001999                            7   3
  366      m_sumb_d                              0.009580                            203   2
 
 Flat profile
 ============
 
             routine name                   CPU           calls
 ---------------------------------------------------------------
 total_time                              2.584458           1
 potlok                                  0.671297          23
 dfftw_execute                           0.566705        1077
 ggaall_grid                             0.536901          24
 fft3d                                   0.413858         684
 map_scatter                             0.305977         405
 map_gather                              0.251955         405
 m_alltoallv_z                           0.204465         405
 fft3d_mpi                               0.078872         867
 m_sumb_d                                0.076283         962
 m_ibcast_z_from                         0.065829         185
 m_ireduce_z_to                          0.052691         184
 augmentation_charge                     0.049579          23
 fock_fwd                                0.039199          23
 eccp                                    0.031279          88
 pothar                                  0.028612          23
 force_and_stress                        0.025435           1
 fftbas_plan_mpi                         0.025249         359
 edwav                                   0.022537          22
 fock_all_dblbuf                         0.019950          23
 fftwav                                  0.018572         176
 vhamil                                  0.016403          24
 fock_bck                                0.015599          23
 vhamil_trace                            0.015354         184
 fock_charge_mu                          0.014522          24
 set_charge                              0.012004          23
 setdij_                                 0.011118          31
 soft_charge                             0.011009          23
 m_bcast_d                               0.008249          29
 apply_gfac_exchange                     0.007086         184
 m_alltoall_d                            0.005832         770
 forloc                                  0.005144           1
 elmin_all                               0.004581           1
 pdssyex_zheevx                          0.004102          23
 rspher_all                              0.003710          13
 racc0                                   0.003494          68
 w1_dscal                                0.003480          22
 pw_charge                               0.003451          23
 forhar                                  0.003279           1
 fock_set_gfac_vkpt                      0.002713          24
 racc0mu_hf                              0.001772          24
 stufak                                  0.001740           1
 fftext_mpi                              0.001567         138
 lincom                                  0.001479          68
 fft_gq                                  0.001341          23
 rpromu_hf                               0.001219          27
 w1_copy                                 0.001179          71
 map_backward                            0.000901         380
 m_ibcast_d_from                         0.000899         188
 orth1                                   0.000828          35
 map_forward                             0.000763         338
 redis_pw                                0.000585         148
 rpro1                                   0.000488          22
 eddiag                                  0.000481          12
 m_bcast_z                               0.000309           9
 kinhamil                                0.000299          24
 fewald                                  0.000278           3
 rpromu_gemm                             0.000269          14
 calc_dllmm_trans                        0.000246         190
 brgrid                                  0.000235           1
 fft_and_gather                          0.000218          24
 rpromu                                  0.000184           7
 m_ireduce_d_to                          0.000176         184
 set_dd_paw                              0.000175          24
 redis_proj                              0.000125         314
 fftbrc_mpi                              0.000124         359
 densta                                  0.000114          24
 reduce                                  0.000111          23
 w1_dot                                  0.000101          22
 orthch                                  0.000087          23
 choleski                                0.000080          23
 wrk_allocate                            0.000080           1
 fftwav_mpi                              0.000079         176
 rsp                                     0.000076           3
 rpro_isp                                0.000062           7
 overl                                   0.000060          68
 waitred                                 0.000050          23
 overl1                                  0.000049          46
 waitgth                                 0.000047          23
 hamilt_local                            0.000036          24
 overl_fock                              0.000035         184
 apply_gfac_weight                       0.000032           1
 depsum                                  0.000031          23
 crpa_reader                             0.000023           1
 fock_force                              0.000019           1
 fornlr                                  0.000014           1
 rcp                                     0.000014           3
 redis_pw_over_bands                     0.000010          23
 redis_pw_all                            0.000008          22
 potlok_metagga                          0.000008          23
 rproxyz                                 0.000005           1
 wrk_deallocate                          0.000003           1
 fordep                                  0.000003           1
 fock_set_fsg                            0.000002           2
 proall                                  0.000002           1
 phaser_hf                               0.000002          24
 set_dd_magatom                          0.000002           2
 phaser                                  0.000002          39
 contraction                             0.000001           3
 eccp_nl_fock                            0.000001           6
 vectorpot                               0.000000           1
 shift_bands_between_low_high            0.000000           1
 rotate_active_occupied_orbital          0.000000           1
 FERMAT_RAZOR                            0.000000           1
 ---------------------------------------------------------------
  summed up times    6.2399599552154541     
 
 Accumulative profile
 ====================
 
             routine name                   CPU           calls
 ---------------------------------------------------------------
 total_time                              6.239960           1
 elmin_all                               3.380426           1
 potlok                                  2.468860          23
 fft3d_mpi                               1.712080         867
 fftbrc_mpi                              1.356138         359
 fftbas_plan_mpi                         1.356014         359
 dfftw_execute                           0.566705        1077
 ggaall_grid                             0.536901          24
 fock_all_dblbuf                         0.508105          23
 map_backward                            0.440197         380
 edwav                                   0.425423          22
 fft3d                                   0.413858         684
 map_forward                             0.323863         338
 map_scatter                             0.305977         405
 eddiag                                  0.299478          12
 map_gather                              0.251955         405
 fock_fwd                                0.245862          23
 set_charge                              0.244664          23
 m_alltoallv_z                           0.204465         405
 augmentation_charge                     0.157972          23
 fftwav_mpi                              0.155439         176
 fftwav                                  0.155360         176
 force_and_stress                        0.128869           1
 fftext_mpi                              0.125926         138
 fft_and_gather                          0.096027          24
 fock_bck                                0.093490          23
 m_sumb_d                                0.076283         962
 soft_charge                             0.074507          23
 m_ibcast_z_from                         0.065829         185
 reduce                                  0.052978          23
 m_ireduce_z_to                          0.052691         184
 set_dd_paw                              0.047952          24
 hamilt_local                            0.044113          24
 eccp                                    0.031279          88
 pothar                                  0.029196          23
 kinhamil                                0.027673          24
 fft_gq                                  0.025122          23
 rpro_isp                                0.016537           7
 vhamil                                  0.016403          24
 fock_charge_mu                          0.016294          24
 vhamil_trace                            0.015354         184
 setdij_                                 0.012539          31
 fock_force                              0.012232           1
 rproxyz                                 0.008718           1
 m_bcast_d                               0.008249          29
 fornlr                                  0.007879           1
 apply_gfac_exchange                     0.007086         184
 m_alltoall_d                            0.005832         770
 forloc                                  0.005161           1
 redis_pw                                0.004968         148
 pdssyex_zheevx                          0.004102          23
 rspher_all                              0.003710          13
 racc0                                   0.003494          68
 w1_dscal                                0.003480          22
 pw_charge                               0.003451          23
 forhar                                  0.003304           1
 fock_set_gfac_vkpt                      0.002715          24
 proall                                  0.002566           1
 racc0mu_hf                              0.001772          24
 stufak                                  0.001740           1
 fordep                                  0.001601           1
 redis_proj                              0.001574         314
 lincom                                  0.001479          68
 orthch                                  0.001317          23
 rpromu_hf                               0.001219          27
 w1_copy                                 0.001179          71
 wrk_allocate                            0.001034           1
 m_ibcast_d_from                         0.000899         188
 orth1                                   0.000828          35
 redis_pw_over_bands                     0.000712          23
 redis_pw_all                            0.000702          22
 rpro1                                   0.000488          22
 rpromu                                  0.000453           7
 densta                                  0.000450          24
 fewald                                  0.000385           3
 fock_set_fsg                            0.000325           2
 m_bcast_z                               0.000309           9
 rpromu_gemm                             0.000269          14
 calc_dllmm_trans                        0.000246         190
 brgrid                                  0.000235           1
 depsum                                  0.000181          23
 m_ireduce_d_to                          0.000176         184
 w1_dot                                  0.000101          22
 choleski                                0.000080          23
 rsp                                     0.000076           3
 overl                                   0.000060          68
 waitred                                 0.000050          23
 overl1                                  0.000049          46
 waitgth                                 0.000047          23
 overl_fock                              0.000035         184
 apply_gfac_weight                       0.000032           1
 crpa_reader                             0.000023           1
 rcp                                     0.000014           3
 potlok_metagga                          0.000008          23
 wrk_deallocate                          0.000003           1
 phaser_hf                               0.000002          24
 set_dd_magatom                          0.000002           2
 phaser                                  0.000002          39
 contraction                             0.000001           3
 eccp_nl_fock                            0.000001           6
 vectorpot                               0.000000           1
 shift_bands_between_low_high            0.000000           1
 rotate_active_occupied_orbital          0.000000           1
 FERMAT_RAZOR                            0.000000           1
 ---------------------------------------------------------------
 
Profiling took   0.006295  0.005094  0.004382  0.004337 seconds
Profiling took   0.001927 seconds
